<?xml version="1.0" encoding="UTF-8"?>
<VTKFile type="UnstructuredGrid" version="0.1" byte_order="LittleEndian">
<UnstructuredGrid>
<Piece NumberOfPoints="350" NumberOfCells="634">
<PointData>
<DataArray type="Float64" Name="&#x538b;&#x529b;_@_t=0" Format="ascii">
3.1010496116053842E7
3.0888268203461558E7
3.093397874329168E7
3.0888183330074232E7
3.080129209370446E7
3.0759737347162973E7
3.0792866505700372E7
3.0759986203363E7
3.069558552925167E7
3.0664876548044134E7
3.071108789933026E7
3.069116681939389E7
3.0664886607109923E7
3.0691766824112047E7
3.0619710031376947E7
3.0594610892959896E7
3.0620204779129833E7
3.0594604979595955E7
3.0560476768791895E7
3.0538073399901655E7
3.0634875972882148E7
3.063917195661306E7
3.0634747598532412E7
3.056098237044552E7
3.0538076966925696E7
3.0578412046010483E7
3.057558948344108E7
3.051039957412987E7
3.048982510316502E7
3.0527299744258944E7
3.051042031967968E7
3.0489824660819452E7
3.0579021554949846E7
3.058293389908302E7
3.0527901214004006E7
3.0543511156128652E7
3.053385053632422E7
3.048441706664076E7
3.0464902103400167E7
3.044673854875928E7
3.0501223559668384E7
3.048553572161338E7
3.046507526559994E7
3.0446738624048095E7
3.0528383020028386E7
3.049950105115318E7
3.0492749353039276E7
3.0460242537439156E7
3.0437803160642896E7
3.042309135440917E7
3.0407598392641217E7
3.0467125227313858E7
3.0439281892628245E7
3.0423756357940923E7
3.0407598482944414E7
3.0478177725675132E7
3.045390397842477E7
3.0454280160860766E7
3.0428378525457095E7
3.040692459870596E7
3.0397832354681257E7
3.038539846564838E7
3.0371486888282448E7
3.0429935782226633E7
3.040697867115885E7
3.039835352983271E7
3.03854668393257E7
3.0371486714899827E7
3.0440317076458137E7
3.041670754472674E7
3.041763624175787E7
3.0393845893491805E7
3.0372178497452762E7
3.0363090288874205E7
3.035101269565184E7
3.0337504601552542E7
3.0394777152958486E7
3.0372723111635055E7
3.0350836968852308E7
3.0337505173677396E7
3.0362488626459543E7
3.040273620443253E7
3.038179338117596E7
3.0381910809543665E7
3.036144752433284E7
3.033954479202875E7
3.0344032895671792E7
3.033080028814776E7
3.031958839801434E7
3.0305477291650686E7
3.036090262511323E7
3.0339237222790707E7
3.034400380098217E7
3.0318707565055836E7
3.0305477697024804E7
3.033101080636223E7
3.036790844311267E7
3.0348813902886E7
3.034861578071553E7
3.03304360887552E7
3.031529642694574E7
3.031334345191878E7
3.0302828174706746E7
3.0289135635894302E7
3.0275126226742778E7
3.0287762741282593E7
3.0275126452351358E7
3.032904837672254E7
3.0316185595956933E7
3.031392370600098E7
3.0300079657913987E7
3.033524633922259E7
3.0317152387725357E7
3.0317600340075504E7
3.0298985176953305E7
3.028964071130013E7
3.0277117369029533E7
3.027330821784136E7
3.025938425925998E7
3.0246062638170917E7
3.026955395457655E7
3.025828072627599E7
3.024606275018451E7
3.0302070816046637E7
3.0289277140531298E7
3.027799797592708E7
3.0303978604499876E7
3.028653307235064E7
3.02879174343949E7
3.026834714059874E7
3.0249516690323967E7
3.025474684602001E7
3.0242977810144726E7
3.023105065279704E7
3.021839111554711E7
3.023216304806293E7
3.0250387241516586E7
3.0241055517933607E7
3.0229901302486543E7
3.0218391191444855E7
3.0271986904737163E7
3.0254663464948263E7
3.0233195739532303E7
3.0274069929501127E7
3.0257536819979955E7
3.0258414133826952E7
3.0240983449514333E7
3.0223977182350215E7
3.0202983052185643E7
3.0191930336479723E7
3.022576881770749E7
3.0214380995625395E7
3.0210025034596596E7
3.022517314535666E7
3.02027825526339E7
3.019193029109438E7
3.0213790113990307E7
3.0242779874832157E7
3.0225987634605993E7
3.021116464328659E7
3.0245181318621412E7
3.0229371662070036E7
3.022964467692099E7
3.0213550343727622E7
3.0176533911987063E7
3.0166897097548652E7
3.019850420085899E7
3.018676999918815E7
3.0197961134248804E7
3.018250610837794E7
3.0176843652134094E7
3.0166896984113332E7
3.0198132949306417E7
3.0186866636733975E7
3.0213636061728623E7
3.018592800329109E7
3.01980429495459E7
3.0216972561950486E7
3.0201897617365185E7
3.0201300150315683E7
3.0187348366446648E7
3.0143431871327415E7
3.0151555258056354E7
3.0160453260685768E7
3.017518679448558E7
3.0164437930657275E7
3.016943619480831E7
3.016246872913242E7
3.014343295041665E7
3.0152256840174463E7
3.0161358943909895E7
3.0169637746469863E7
3.018526555216865E7
3.016452863296027E7
3.0168889831659906E7
3.0189260644589823E7
3.0174549105764735E7
3.017382034865587E7
3.0121985930993248E7
3.012737220541736E7
3.0121987394568127E7
3.01294245085661E7
3.016093395937701E7
3.0137213171981584E7
3.0148840353513815E7
3.0153579732885215E7
3.014864359718697E7
3.014764146860751E7
3.0109797786845762E7
3.0103209200336006E7
3.00957388360608E7
3.008806262998152E7
3.0138134542508673E7
3.0149115210985087E7
3.0148080444898006E7
3.0158796513153385E7
3.014783226559308E7
3.0147328515873916E7
3.0161664577087026E7
3.0147676497384842E7
3.0146805800032627E7
3.011004359117393E7
3.0103209195250094E7
3.009836190835743E7
3.0088062716215312E7
3.0121391734772764E7
3.0110641645645548E7
3.0088775334518023E7
3.0081495812503718E7
3.0078029611504737E7
3.011382726019046E7
3.0135430322942287E7
3.0125743946694043E7
3.0127306188112523E7
3.013206391843171E7
3.0091904827958107E7
3.007802950199002E7
3.008375668928047E7
3.0074545811176877E7
3.007346931724111E7
3.007454586528447E7
3.0126690296842456E7
3.01316329967507E7
3.013325517300767E7
3.0128167572511803E7
3.0133765899045546E7
3.012023065459949E7
3.0119873548701037E7
3.009443364932653E7
3.010067931522087E7
3.0074545330202077E7
3.0074545757914454E7
3.0073475914418448E7
3.0074545872638874E7
3.00964813440133E7
3.010403502046909E7
3.0105131279457178E7
3.007454447021596E7
3.0074545712667126E7
3.006730539201533E7
3.0070814927072715E7
3.0107501863036357E7
3.010404039197805E7
3.0105020814698923E7
3.009614400047018E7
3.0096018095953602E7
3.0074543936682377E7
3.007454369112424E7
3.005991567124534E7
3.006742741060055E7
3.007081491159295E7
3.007454502382626E7
3.007454592270572E7
3.0074544805210367E7
3.0055891736815985E7
3.0058131845471766E7
3.0037314642442517E7
3.005159561456707E7
3.0059612679573167E7
3.0074542017256897E7
3.0074544199313555E7
3.00745457984297E7
3.0052490922483515E7
3.005336785542833E7
3.00434107897534E7
3.004989037319499E7
3.005961262454159E7
3.0051524874523513E7
3.005017390513898E7
3.0046220083056454E7
3.0030052730603512E7
3.0019208951536648E7
3.003188537407669E7
3.0040860944469362E7
3.0052031246057216E7
3.0052555178850837E7
3.0040098622127637E7
3.0023032727929536E7
3.003046190435927E7
3.0025505743006002E7
3.0029458655803E7
3.0040861236661892E7
3.0022659820986304E7
3.001951972450385E7
3.00111401371321E7
2.99962917042887E7
3.000199262290709E7
3.001424084101035E7
3.0021890122390054E7
2.999596954239378E7
3.0000406901833255E7
2.9993688731199704E7
3.000046886541069E7
3.0014241633124325E7
2.9985293245077606E7
2.9983090120609332E7
2.9949762033318754E7
2.99632309900185E7
2.9978885787777346E7
2.9978445766423862E7
2.996570223861469E7
2.99536689463335E7
2.9952364183043193E7
2.9961648615255784E7
2.9978888016342193E7
2.9933700499233868E7
2.9905633362445246E7
2.9915267880203124E7
2.9932791297621813E7
2.993423472502959E7
2.9927158962260913E7
2.9897092674946677E7
2.9909881304726098E7
2.993280504454692E7
2.9871110603919536E7
2.985654447060803E7
2.987148322917697E7
2.987019080547574E7
2.982241686370917E7
2.985023982675456E7
2.98714507031145E7
2.9783788938246477E7
2.970905097159311E7
2.978427526522881E7
2.9751018647289928E7
2.978361519280478E7
2.961524488783524E7
2.9636363056721944E7
2.963207183484191E7
2.8993285903379157E7
</DataArray>
<DataArray type="Float64" Name="&#x6e29;&#x5ea6;_@_t=0" Format="ascii">
375
379.99944346064257
379.9997179034796
379.99943839148983
379.99988222518965
380.0001276521563
379.99991366458056
380.0001259292056
379.9999955344654
379.99997979115705
380.0000352385509
379.9999926808368
379.99998054115923
380.0000143644449
380.0000043236079
380.00000195537467
380.0000045286369
380.00000207035765
379.999998898535
379.99999998569183
379.99999535358126
379.99999324818805
379.99999945558653
379.9999990889948
379.999999952043
379.99999937327493
379.9999999219703
380.0000001277522
379.99999996748073
380.0000002281945
380.00000015340174
379.99999995517993
380.0000016835136
380.00000099296057
380.0000002249263
379.99999994606554
379.99999973496756
379.9999999409381
379.99999999348626
380.0000000075748
379.99999999885057
379.9999999466517
379.99999999054285
380.0000000103385
379.9999996752218
380.0000000265249
380.0000000992627
380.00000000776686
380.0000000089348
379.9999999985682
379.9999999991115
379.99999999625817
380.00000000936336
379.9999999985924
379.9999999986506
380.0000000420455
379.99999998706335
379.9999999779614
379.9999999991224
379.9999999986081
379.99999999889843
380.0000000005528
379.9999999999903
380.00000000227004
379.999999997995
379.9999999988729
380.0000000006332
380.00000000003996
379.9999999982483
380.00000000258893
380.00000000346785
379.9999999998957
380.0000000003451
380.0000000000542
379.9999999998952
380.0000000000327
379.9999999993802
380.00000000048385
379.9999999998806
380.00000000002865
380.00000000004025
379.9999999993925
379.9999999996731
379.9999999996116
380.0000000000169
379.9999999999371
379.9999999999408
380.0000000000166
380.00000000001006
379.99999999999153
380.00000000008555
379.99999999991263
379.9999999999071
380.0000000000125
379.99999999999136
380.0000000000228
380.00000000020754
380.00000000001995
380.00000000002086
380.00000000000017
380.00000000000716
380.00000000001364
379.9999999999954
380.0000000000002
380.0000000000014
380.0000000000004
380.0000000000014
379.9999999999921
380.0000000000141
380.00000000001677
379.9999999999918
379.9999999999597
380.0000000000031
380.00000000000404
379.99999999999744
379.9999999999978
379.99999999999824
380.0000000000009
379.9999999999996
379.99999999999983
380.00000000000153
379.9999999999995
379.99999999999983
379.9999999999995
379.99999999999574
379.99999999999903
380.0000000000055
379.99999999999903
379.9999999999986
380.00000000000085
380.00000000000017
380.0000000000004
379.99999999999994
380.00000000000017
380
379.9999999999999
379.99999999999994
379.99999999999994
380.00000000000017
380
380.00000000000085
380.0000000000006
379.9999999999999
379.9999999999995
380.00000000000017
380.00000000000017
379.99999999999994
380
380
380
380
380
380
380
380
380
380
379.9999999999997
380
380
380
380
380
380
380
380
380
380
380
380
380
380
380
380
380
380
380
380
380
380
380
380
380
380
380
380
380
380
380
380
380
380
380
380
380
380
380
380
380
380
380
380
380
380
380
380
380
380
380
380
380
380
380
380
380
380
380
380
380
380
380
380
380
380
380
380
380
380
380
380
380
380
380
380
380
380
380
380
380
380
380
380
380
380
380
380
380
380
380
380
380
380
380
380
380
380
380
380
380
380
380
380
380
380
380
380
380
380
380
380
380
380
380
380
380
380
380
380
380
380
380
380
380
380
380
380
380
380
380
380
380
380
380
380
380
380
380
380
380
380
380
380
380
380
380
380
380
380
380
380
380
380
380
380
380
380
380
380
380
380
380
380
380
380
380
380
380
380
380
380
380
380
380
380
380
380
380
380
380
380
380
380
380
380
380
380
380
380
380
380
</DataArray>
<DataArray type="Float64" Name="&#x538b;&#x529b;_@_t=100" Format="ascii">
3.1010496116260834E7
3.088826820113809E7
3.0933978741958447E7
3.088818332788444E7
3.080129208978938E7
3.075973734236015E7
3.0792866501924213E7
3.0759986199162275E7
3.0695585523864176E7
3.0664876542389024E7
3.071108789441188E7
3.069116681477766E7
3.066488660258801E7
3.069176681935253E7
3.0619710027216922E7
3.0594610889169704E7
3.062020477376154E7
3.0594604974513263E7
3.056047676448526E7
3.053807339612927E7
3.0634875967706475E7
3.0639171951816093E7
3.063474759409002E7
3.0560982367244575E7
3.0538076964232933E7
3.0578412042408157E7
3.057558947896838E7
3.0510399572158758E7
3.048982510178584E7
3.0527299740917917E7
3.051042031673434E7
3.0489824658488672E7
3.057902155071893E7
3.0582933895146076E7
3.0527901211559866E7
3.0543511153189838E7
3.0533850533024926E7
3.0484417065506946E7
3.0464902102852482E7
3.0446738548787247E7
3.050122355720923E7
3.0485535719551977E7
3.0465075264165815E7
3.0446738623244625E7
3.0528383017260518E7
3.0499501049504194E7
3.04927493511084E7
3.0460242537181605E7
3.043780316112802E7
3.0423091355301928E7
3.040759839402893E7
3.046712522609849E7
3.0439281892329123E7
3.04237563580476E7
3.040759848358525E7
3.0478177724576566E7
3.0453903978414703E7
3.0454280160454903E7
3.0428378526410226E7
3.040692460039903E7
3.039783235658196E7
3.038539846786532E7
3.0371486890922848E7
3.042993578260085E7
3.040697867227491E7
3.039835353103066E7
3.038546684080894E7
3.0371486716818124E7
3.044031707700936E7
3.0416707546268012E7
3.0417636243014216E7
3.0393845895821523E7
3.0372178500430677E7
3.036309029196495E7
3.0351012698997557E7
3.0337504605269354E7
3.0394777154848967E7
3.0372723114028484E7
3.035083697152747E7
3.033750517674081E7
3.0362488628884967E7
3.0402736206793725E7
3.0381793384213094E7
3.0381910812381383E7
3.0361447527975287E7
3.0339544796051335E7
3.034403289978119E7
3.0330800292225514E7
3.0319588402305465E7
3.0305477296309397E7
3.0360902628398005E7
3.033923722655746E7
3.0344003804252513E7
3.031870756876334E7
3.0305477701068938E7
3.0331010809854325E7
3.0367908447038576E7
3.0348813907295946E7
3.0348615784960438E7
3.0330436093559388E7
3.0315296431637753E7
3.031334345694912E7
3.0302828179585535E7
3.028913564102706E7
3.0275126232191842E7
3.0287762745887306E7
3.0275126457235765E7
3.0329048381298687E7
3.0316185600667637E7
3.031392371035576E7
3.030007966235197E7
3.033524634452601E7
3.031715239333466E7
3.0317600345540885E7
3.0298985182801004E7
3.0289640716751453E7
3.027711737515765E7
3.0273308223473918E7
3.0259384265104625E7
3.0246062644272316E7
3.026955395984463E7
3.0258280731634308E7
3.024606275575052E7
3.030207082158706E7
3.0289277145997494E7
3.0277997981278244E7
3.030397861102116E7
3.0286533079030097E7
3.0287917440914687E7
3.0268347147395182E7
3.0249516697219435E7
3.025474685235172E7
3.024297781646296E7
3.0231050659233365E7
3.0218391122169077E7
3.0232163055081062E7
3.025038724751473E7
3.0241055523838427E7
3.022990130842415E7
3.0218391197514158E7
3.027198691122606E7
3.025466347132141E7
3.023319574613259E7
3.0274069937098924E7
3.0257536827567723E7
3.0258414141262192E7
3.0240983457052786E7
3.022397718984626E7
3.0202983059074227E7
3.0191930343473222E7
3.022576882455979E7
3.0214381002460454E7
3.021002504197489E7
3.0225173151800524E7
3.0202782558965113E7
3.0191930297489773E7
3.0213790120338816E7
3.024277988207302E7
3.022598764173169E7
3.0211164650231037E7
3.0245181327117514E7
3.0229371670384992E7
3.0229644685092483E7
3.0213550351854276E7
3.017653391919079E7
3.0166897104817193E7
3.019850420876081E7
3.0186770006387305E7
3.0197961141507182E7
3.0182506116094377E7
3.0176843658657577E7
3.0166896990637276E7
3.0198132956034485E7
3.0186866643319372E7
3.021363606957132E7
3.0185928010403693E7
3.019804295702112E7
3.021697257116556E7
3.020189762622915E7
3.0201300159023136E7
3.0187348374955058E7
3.014343187880492E7
3.015155526549713E7
3.016045326812848E7
3.017518680265015E7
3.016443793865799E7
3.016943620235816E7
3.0162468736944176E7
3.0143432956928547E7
3.0152256846732903E7
3.0161358950555563E7
3.01696377533297E7
3.018526556033088E7
3.0164528640125275E7
3.016888983922798E7
3.018926065432075E7
3.0174549114959788E7
3.0173820357641887E7
3.0121985937420502E7
3.0127372211905725E7
3.012198740218882E7
3.012942451615795E7
3.016093396808945E7
3.013721317959061E7
3.0148840361140948E7
3.0153579741187897E7
3.014864360518682E7
3.014764147639105E7
3.010979779456539E7
3.010320920808385E7
3.0095738843887936E7
3.0088062637819815E7
3.013813454913828E7
3.0149115217765756E7
3.0148080451898057E7
3.0158796521402296E7
3.014783227291602E7
3.014732852360969E7
3.0161664587085407E7
3.0147676506675124E7
3.014680580906258E7
3.0110043597573828E7
3.0103209201589588E7
3.0098361914707474E7
3.008806272245589E7
3.012139174134756E7
3.0110641652124286E7
3.0088775340893276E7
3.0081495818770807E7
3.0078029617450453E7
3.011382726792374E7
3.013543033162063E7
3.012574395446262E7
3.012730619634005E7
3.0132063926370047E7
3.0091904835881673E7
3.0078029509688526E7
3.008375669723961E7
3.007454581914902E7
3.0073469324697774E7
3.0074545872778434E7
3.0126690303633906E7
3.013163300385735E7
3.013325518116201E7
3.0128167580021765E7
3.0133765909095075E7
3.012023066376481E7
3.01198735575504E7
3.0094433655797787E7
3.0100679321815707E7
3.0074545336915813E7
3.0074545764132623E7
3.0073475920066796E7
3.0074545878314313E7
3.009648135185674E7
3.0104035028858487E7
3.010513128739088E7
3.0074544478253838E7
3.0074545721006405E7
3.0067305398959216E7
3.0070814934249904E7
3.0107501870032612E7
3.0104040399737567E7
3.0105020824570943E7
3.0096144009482257E7
3.009601810466811E7
3.0074543943255354E7
3.007454369765843E7
3.0059915675553393E7
3.0067427415770087E7
3.0070814916945074E7
3.0074545031588566E7
3.0074545931017753E7
3.007454481301109E7
3.0055891742199253E7
3.0058131851208992E7
3.0037314645327948E7
3.0051595619299244E7
3.005961268535954E7
3.0074542024167884E7
3.0074544207169335E7
3.007454580779808E7
3.005249092625636E7
3.005336785894067E7
3.0043410791634522E7
3.004989037586653E7
3.0059612628512938E7
3.0051524880385637E7
3.005017390986592E7
3.0046220087649338E7
3.0030052732709404E7
3.0019208952136993E7
3.0031885376186583E7
3.004086094771496E7
3.0052031250529874E7
3.0052555184423476E7
3.004009862731139E7
3.002303272814085E7
3.0030461904978387E7
3.0025505742578235E7
3.0029458655632857E7
3.00408612379929E7
3.0022659823258072E7
3.0019519725598484E7
3.0011140137576632E7
2.9996291702447955E7
3.0001992621401954E7
3.0014240840871587E7
3.0021890123770714E7
2.9995969539509565E7
3.000040690207142E7
2.9993688727103345E7
3.000046886154251E7
3.0014241630852085E7
2.998529324286786E7
2.998309011771773E7
2.9949762026855756E7
2.9963230984577745E7
2.997888578373305E7
2.9978445762451798E7
2.9965702231850896E7
2.995366894093707E7
2.9952364174114823E7
2.996164860691377E7
2.9978888009736437E7
2.993370049141539E7
2.9905633352202814E7
2.9915267870761763E7
2.9932791289478537E7
2.9934234715837542E7
2.992715895117413E7
2.9897092663754325E7
2.9909881291404102E7
2.9932805033075716E7
2.9871110591018435E7
2.9856544457490128E7
2.9871483217031896E7
2.9870190790432908E7
2.9822416847952873E7
2.9850239809209656E7
2.9871450686415475E7
2.978378892215458E7
2.9709050953443315E7
2.9784275249679845E7
2.9751018628024783E7
2.9783615173136245E7
2.9615244871076174E7
2.96363630408286E7
2.9632071817485E7
2.899328590355926E7
</DataArray>
<DataArray type="Float64" Name="&#x6e29;&#x5ea6;_@_t=100" Format="ascii">
375
378.5531257714669
378.56162471259074
378.5385957283458
379.5363934812736
379.9554856395977
379.62588990418124
379.9619454006673
380.00686090634
380.00316243880894
379.9777605338388
380.0051282477998
380.00295642588225
379.99527631131264
380.0001041348474
379.99985106496314
380.0001965823524
379.99986569775837
379.9999684581498
380.0000121569256
380.001486239943
380.00103673653626
380.0007228336355
379.9999829489396
380.0000122587217
379.9999726054171
379.9999201559624
380.00000318816495
379.9999991038688
380.00000513085547
380.00000455340546
379.99999880502406
379.99993763389995
379.99994490075346
379.99999910047086
380.0000012948896
380.00000268783697
379.9999995416152
379.999999542931
380.00000000829806
380.0000019036267
380.00000001958284
379.9999994753029
380.0000000484271
379.9999996527595
380.0000015660872
380.00000326498997
379.9999997394375
380.00000000956464
380.0000000388584
379.9999999996762
379.9999993306556
380.00000000668996
380.00000003653014
380.00000000235497
380.0000011754143
379.999999483917
379.99999940077777
380.000000062849
380.00000000219217
380.00000000182763
379.9999999966446
380.0000000004565
380.00000010567663
379.99999999764697
380.0000000004656
379.9999999969619
380.0000000003185
379.99999992319863
380.000000039742
380.000000034116
379.99999999314053
380.0000000003714
379.9999999999825
380.0000000003617
379.99999999991854
379.9999999968855
380.000000001117
380.00000000031815
379.99999999998886
380.000000000311
380.00000000249673
379.9999999976172
379.9999999979373
380.00000000085305
379.9999999999445
379.99999999987443
380.0000000000032
379.9999999999656
380.0000000000135
380.00000000123737
379.9999999998992
379.99999999993884
379.99999999996885
380.00000000000654
380.00000000000205
380.0000000003692
380.0000000002144
380.00000000035817
379.9999999999093
380.00000000003047
380.00000000003234
380.0000000000123
380.0000000000009
379.99999999999744
380.0000000000004
379.999999999997
379.999999999944
380.0000000000382
380.00000000004553
380.00000000001563
379.9999999999036
379.9999999999898
379.9999999999805
380.0000000000095
379.9999999999978
380.0000000000007
379.99999999999756
380.00000000000017
380.0000000000003
379.99999999999704
380
380.0000000000003
380.0000000000064
380.0000000000022
380.00000000000176
380.0000000000127
380.0000000000012
380.0000000000028
379.9999999999986
380.00000000000017
379.99999999999966
380.0000000000009
379.99999999999994
379.99999999999994
380.0000000000003
380.00000000000017
380.00000000000085
379.99999999999994
380
379.99999999999847
379.9999999999995
380.0000000000005
379.9999999999988
380.0000000000002
379.9999999999997
380.0000000000005
379.99999999999994
379.99999999999994
380
380.00000000000006
379.9999999999998
379.9999999999998
379.9999999999997
380.00000000000006
380.00000000000006
379.9999999999997
380.0000000000007
380.00000000000017
379.99999999999994
380.00000000000017
379.99999999999994
379.99999999999994
379.9999999999998
380.00000000000006
380
380.00000000000006
380
380
379.99999999999994
380.00000000000006
380
380.00000000000017
380.00000000000006
379.9999999999997
380.00000000000006
380
379.99999999999994
380
380
379.99999999999994
380
380
380
380
380
380.00000000000006
380
380.00000000000006
380
380.00000000000006
380
380
379.99999999999994
380.00000000000006
380
380
380.00000000000006
380
380.00000000000006
379.99999999999994
379.99999999999994
380
380
380
379.99999999999994
380
380
380
380
380
380
380
379.99999999999994
379.99999999999994
380
380.00000000000006
380.00000000000006
380.00000000000006
380
380
380
380
380
380
380
380
380
380
380
380
380
380
380
380
380
380
380
380
380
380
380
380
380
380
380.00000000000006
379.99999999999994
380.00000000000006
380
380
380
380
380
380
380
380
380
380
380
380
380
380
380
379.99999999999994
380
380
380
380
380
380
380
380
380
380
380
380
380
380
380
380
380
380
380
380
380
380
380
380
380
380
380
380
380
380
380
380
380
380
380
380
380
380
380
380
380
380
380
380
380
380
380
380
380
380
380
380
380
380
380
380
380
380
380
380
380
380
380
380
380
380
380
380
380
380
380
380
380
380
380
380
380
380
380
380
380
380
380
380
380
380
</DataArray>
<DataArray type="Float64" Name="&#x538b;&#x529b;_@_t=200" Format="ascii">
3.1010496116639055E7
3.088826819709145E7
3.09339787395739E7
3.0888183323857125E7
3.0801292082630064E7
3.0759737333690334E7
3.0792866494512774E7
3.075998619060148E7
3.0695585512998115E7
3.066487653047402E7
3.0711087884134274E7
3.0691166803899016E7
3.0664886590863466E7
3.069176680847173E7
3.0619710014077958E7
3.059461087526704E7
3.062020476043925E7
3.059460496040794E7
3.056047674939746E7
3.053807338040043E7
3.0634875954893734E7
3.063917193920883E7
3.0634747581399295E7
3.0560982352337573E7
3.0538076948655088E7
3.0578412028012294E7
3.0575589464340944E7
3.05103995557948E7
3.048982508484439E7
3.052729972490042E7
3.0510420300233852E7
3.048982464141653E7
3.0579021536239382E7
3.058293388084415E7
3.052790119569766E7
3.054351113776198E7
3.053385051722159E7
3.0484417048435915E7
3.04649020852363E7
3.044673853067124E7
3.0501223540474273E7
3.0485535702374805E7
3.0465075246430155E7
3.0446738605017986E7
3.0528383001362316E7
3.0499501032843146E7
3.049274933417355E7
3.046024251946237E7
3.0437803142800357E7
3.0423091336561684E7
3.0407598374866378E7
3.0467125208446298E7
3.043928187393105E7
3.0423756339218643E7
3.0407598464319065E7
3.0478177707294274E7
3.045390396051469E7
3.045428014249732E7
3.0428378507839035E7
3.0406924581257544E7
3.039783233718962E7
3.038539844812402E7
3.0371486870800663E7
3.042993576398908E7
3.040697865304599E7
3.0398353511544455E7
3.038546682095648E7
3.0371486696586568E7
3.0440317058719773E7
3.0416707527377736E7
3.041763622410958E7
3.0393845876335364E7
3.0372178480372045E7
3.0363090271643866E7
3.0351012678329203E7
3.033750458422728E7
3.0394777135323614E7
3.0372723093885716E7
3.035083695075189E7
3.0337505155605923E7
3.036248860843427E7
3.0402736187520936E7
3.0381793364405226E7
3.038191079254495E7
3.0361447507641394E7
3.0339544775114182E7
3.0344032878983237E7
3.03308002710233E7
3.031958838078415E7
3.0305477274406683E7
3.0360902607980903E7
3.033923720554286E7
3.034400378333298E7
3.031870754713306E7
3.030547767908138E7
3.0331010788569152E7
3.0367908426856536E7
3.0348813886623442E7
3.0348615764250804E7
3.0330436072399516E7
3.031529641003095E7
3.0313343435311798E7
3.0302828157621693E7
3.028913561868598E7
3.0275126209473353E7
3.0287762723438293E7
3.027512643444994E7
3.0329048360049482E7
3.0316185579057027E7
3.031392368864942E7
3.030007964024585E7
3.0335246323480625E7
3.031715237181434E7
3.0317600324008167E7
3.029898516078874E7
3.028964069444642E7
3.0277117352539007E7
3.0273308200709116E7
3.02593842419629E7
3.0246062620776325E7
3.0269553936935667E7
3.0258280708412778E7
3.0246062732199922E7
3.0302070799620274E7
3.0289277123662163E7
3.0277997958614532E7
3.0303978589138772E7
3.0286533056691106E7
3.0287917418588314E7
3.0268347124564175E7
3.0249516673868984E7
3.025474682910756E7
3.024297779288781E7
3.023105063533974E7
3.0218391097937968E7
3.0232163031249918E7
3.0250387224124175E7
3.0241055500179794E7
3.0229901284450952E7
3.021839117322655E7
3.0271986888455044E7
3.0254663448067255E7
3.0233195722301435E7
3.02740699144194E7
3.0257536804452818E7
3.025841411814725E7
3.024098343349098E7
3.0223977165813114E7
3.020298303443056E7
3.0191930318530295E7
3.022576880053814E7
3.0214380978125393E7
3.0210025017544482E7
3.0225173127737526E7
3.0202782534259286E7
3.019193027248271E7
3.0213790095946077E7
3.0242779858523775E7
3.0225987617717057E7
3.0211164625792343E7
3.0245181303658944E7
3.0229371646507736E7
3.0229644661200613E7
3.0213550327549633E7
3.017653389384074E7
3.0166897079209555E7
3.0198504184033167E7
3.018676998131593E7
3.019796111673985E7
3.0182506090923183E7
3.017684363322333E7
3.016689696491963E7
3.0198132931213383E7
3.0186866618170645E7
3.021363604522765E7
3.018592798523872E7
3.019804293221945E7
3.0216972546940852E7
3.0201897601605188E7
3.020130013435449E7
3.018734834993284E7
3.014343185258618E7
3.0151555239494298E7
3.0160453242365535E7
3.017518677729073E7
3.0164437913010262E7
3.0169436176837508E7
3.0162468711243935E7
3.0143432930526573E7
3.015225682058889E7
3.016135892467494E7
3.0169637727690306E7
3.0185265535186786E7
3.0164528614345573E7
3.016888981358623E7
3.0189260629338067E7
3.0174549089582693E7
3.0173820332204867E7
3.0121985910388086E7
3.0127372185036097E7
3.012198737541087E7
3.012942448957817E7
3.016093394234674E7
3.013721315322383E7
3.014884033508112E7
3.0153579715254266E7
3.0148643579126805E7
3.0147641450303692E7
3.0109797767482366E7
3.0103209180827323E7
3.0095738816452634E7
3.0088062610194728E7
3.013813452259108E7
3.0149115191540398E7
3.014808042565346E7
3.0158796495508414E7
3.0147832246674124E7
3.0147328497371085E7
3.016166456133802E7
3.014767648056918E7
3.014680578287794E7
3.011004357020152E7
3.0103209174015228E7
3.0098361887003295E7
3.0088062694456313E7
3.0121391714326393E7
3.0110641624789484E7
3.0088775312931616E7
3.008149579059396E7
3.0078029589155905E7
3.011382724096203E7
3.0135430305213574E7
3.012574392781592E7
3.012730616974065E7
3.013206389988805E7
3.0091904808376845E7
3.0078029481817108E7
3.0083756669517178E7
3.007454579120212E7
3.0073469296715718E7
3.007454584481767E7
3.0126690276790317E7
3.01316329771711E7
3.013325515457657E7
3.0128167553269383E7
3.0133765882601332E7
3.0120230636959553E7
3.0119873530662294E7
3.0094433628021292E7
3.0100679294259183E7
3.0074545308607664E7
3.0074545735761475E7
3.0073475891645245E7
3.007454584991085E7
3.0096481324495554E7
3.0104035001689143E7
3.010513126025605E7
3.0074544450377684E7
3.0074545693090696E7
3.00673053708561E7
3.0070814906206697E7
3.010750184272519E7
3.010404037241388E7
3.0105020797360104E7
3.009614398209157E7
3.0096018077204727E7
3.0074543915019367E7
3.007454366950744E7
3.0059915646915067E7
3.006742738723526E7
3.007081488845695E7
3.007454500374702E7
3.0074545903151106E7
3.00745447851793E7
3.005589171394482E7
3.0058131822953574E7
3.003731461669766E7
3.0051595590887327E7
3.0059612657091934E7
3.0074541996106576E7
3.007454417918439E7
3.0074545779877782E7
3.0052490897638436E7
3.0053367830238666E7
3.0043410762642223E7
3.004989034696725E7
3.005961259980036E7
3.005152485201201E7
3.005017388152845E7
3.0046220059223182E7
3.003005270399039E7
3.0019208923213255E7
3.0031885347438548E7
3.0040860919102564E7
3.0052031222000595E7
3.0052555155975245E7
3.0040098598667163E7
3.0023032698960114E7
3.0030461875852995E7
3.0025505713275444E7
3.0029458626335178E7
3.0040861208895624E7
3.002265979436022E7
3.0019519696728487E7
3.001114010854991E7
2.9996291673269358E7
3.0001992592241284E7
3.0014240811849687E7
3.00218900947032E7
2.9995969509903383E7
3.0000406872763783E7
2.9993688697345473E7
3.0000468831775684E7
3.0014241601266723E7
2.998529321346345E7
2.998309008838551E7
2.994976199733365E7
2.9963230955125388E7
2.997888575435309E7
2.9978445732714627E7
2.9965702201809797E7
2.995366891109557E7
2.9952364143858623E7
2.996164857668966E7
2.9978887979655277E7
2.9933700461684115E7
2.9905633322629355E7
2.991526784127545E7
2.9932791259974305E7
2.993423468566494E7
2.992715892081206E7
2.9897092633737966E7
2.9909881260934748E7
2.993280500263582E7
2.987111056145155E7
2.9856544428418934E7
2.987148318789804E7
2.987019076031408E7
2.9822416818752956E7
2.9850239779060047E7
2.987145065598638E7
2.9783788894183885E7
2.9709050926988255E7
2.9784275221927483E7
2.975101860010404E7
2.978361514422791E7
2.9615244847887445E7
2.963636301727548E7
2.9632071793640207E7
2.8993285903811462E7
</DataArray>
<DataArray type="Float64" Name="&#x6e29;&#x5ea6;_@_t=200" Format="ascii">
375
377.7787949326294
377.6503794084261
377.75282703855123