# vtk DataFile Version 3.0
3D-EDFM Polyhedron Simulation (Time: 0.000000e+00)
ASCII
DATASET UNSTRUCTURED_GRID
POINTS 273 double
0.000000e+00 0.000000e+00 0.000000e+00 1.000000e+01 0.000000e+00 0.000000e+00 1.000000e+01 1.000000e+01 0.000000e+00 
0.000000e+00 1.000000e+01 0.000000e+00 0.000000e+00 0.000000e+00 1.000000e+01 1.000000e+01 0.000000e+00 1.000000e+01 
1.000000e+01 1.000000e+01 1.000000e+01 0.000000e+00 1.000000e+01 1.000000e+01 2.000000e+00 0.000000e+00 0.000000e+00 
4.000000e+00 0.000000e+00 0.000000e+00 6.000000e+00 0.000000e+00 0.000000e+00 8.000000e+00 0.000000e+00 0.000000e+00 
1.000000e+01 2.000000e+00 0.000000e+00 1.000000e+01 4.000000e+00 0.000000e+00 1.000000e+01 6.000000e+00 0.000000e+00 
1.000000e+01 8.000000e+00 0.000000e+00 8.000000e+00 1.000000e+01 0.000000e+00 6.000000e+00 1.000000e+01 0.000000e+00 
4.000000e+00 1.000000e+01 0.000000e+00 2.000000e+00 1.000000e+01 0.000000e+00 0.000000e+00 8.000000e+00 0.000000e+00 
0.000000e+00 6.000000e+00 0.000000e+00 0.000000e+00 4.000000e+00 0.000000e+00 0.000000e+00 2.000000e+00 0.000000e+00 
2.000000e+00 0.000000e+00 1.000000e+01 4.000000e+00 0.000000e+00 1.000000e+01 6.000000e+00 0.000000e+00 1.000000e+01 
8.000000e+00 0.000000e+00 1.000000e+01 1.000000e+01 2.000000e+00 1.000000e+01 1.000000e+01 4.000000e+00 1.000000e+01 
1.000000e+01 6.000000e+00 1.000000e+01 1.000000e+01 8.000000e+00 1.000000e+01 8.000000e+00 1.000000e+01 1.000000e+01 
6.000000e+00 1.000000e+01 1.000000e+01 4.000000e+00 1.000000e+01 1.000000e+01 2.000000e+00 1.000000e+01 1.000000e+01 
0.000000e+00 8.000000e+00 1.000000e+01 0.000000e+00 6.000000e+00 1.000000e+01 0.000000e+00 4.000000e+00 1.000000e+01 
0.000000e+00 2.000000e+00 1.000000e+01 0.000000e+00 0.000000e+00 2.000000e+00 0.000000e+00 0.000000e+00 4.000000e+00 
0.000000e+00 0.000000e+00 6.000000e+00 0.000000e+00 0.000000e+00 8.000000e+00 1.000000e+01 0.000000e+00 2.000000e+00 
1.000000e+01 0.000000e+00 4.000000e+00 1.000000e+01 0.000000e+00 6.000000e+00 1.000000e+01 0.000000e+00 8.000000e+00 
1.000000e+01 1.000000e+01 2.000000e+00 1.000000e+01 1.000000e+01 4.000000e+00 1.000000e+01 1.000000e+01 6.000000e+00 
1.000000e+01 1.000000e+01 8.000000e+00 0.000000e+00 1.000000e+01 2.000000e+00 0.000000e+00 1.000000e+01 4.000000e+00 
0.000000e+00 1.000000e+01 6.000000e+00 0.000000e+00 1.000000e+01 8.000000e+00 1.323760e+00 5.060815e+00 0.000000e+00 
8.267949e+00 5.000000e+00 0.000000e+00 4.886651e+00 8.362934e+00 0.000000e+00 4.886651e+00 1.637066e+00 0.000000e+00 
8.306456e+00 3.008475e+00 0.000000e+00 6.705676e+00 3.964489e+00 0.000000e+00 6.727555e+00 6.031005e+00 0.000000e+00 
4.803848e+00 5.000000e+00 0.000000e+00 3.001136e+00 1.693821e+00 0.000000e+00 8.303769e+00 6.995292e+00 0.000000e+00 
3.001136e+00 8.306179e+00 0.000000e+00 6.856861e+00 8.176623e+00 0.000000e+00 6.836095e+00 1.882452e+00 0.000000e+00 
1.865278e+00 6.842154e+00 0.000000e+00 1.724846e+00 3.140773e+00 0.000000e+00 3.873807e+00 6.785386e+00 0.000000e+00 
3.893144e+00 3.312774e+00 0.000000e+00 3.175843e+00 5.231080e+00 0.000000e+00 8.535898e+00 8.535898e+00 0.000000e+00 
1.464102e+00 8.535898e+00 0.000000e+00 1.464102e+00 1.464102e+00 0.000000e+00 8.535898e+00 1.464102e+00 0.000000e+00 
5.417981e+00 6.896970e+00 0.000000e+00 5.417981e+00 3.103030e+00 0.000000e+00 2.000000e+00 0.000000e+00 2.000000e+00 
2.000000e+00 0.000000e+00 4.000000e+00 2.000000e+00 0.000000e+00 6.000000e+00 2.000000e+00 0.000000e+00 8.000000e+00 
4.000000e+00 0.000000e+00 2.000000e+00 4.000000e+00 0.000000e+00 4.000000e+00 4.000000e+00 0.000000e+00 6.000000e+00 
4.000000e+00 0.000000e+00 8.000000e+00 6.000000e+00 0.000000e+00 2.000000e+00 6.000000e+00 0.000000e+00 4.000000e+00 
6.000000e+00 0.000000e+00 6.000000e+00 6.000000e+00 0.000000e+00 8.000000e+00 8.000000e+00 0.000000e+00 2.000000e+00 
8.000000e+00 0.000000e+00 4.000000e+00 8.000000e+00 0.000000e+00 6.000000e+00 8.000000e+00 0.000000e+00 8.000000e+00 
1.000000e+01 2.000000e+00 2.000000e+00 1.000000e+01 2.000000e+00 4.000000e+00 1.000000e+01 2.000000e+00 6.000000e+00 
1.000000e+01 2.000000e+00 8.000000e+00 1.000000e+01 4.000000e+00 2.000000e+00 1.000000e+01 4.000000e+00 4.000000e+00 
1.000000e+01 4.000000e+00 6.000000e+00 1.000000e+01 4.000000e+00 8.000000e+00 1.000000e+01 6.000000e+00 2.000000e+00 
1.000000e+01 6.000000e+00 4.000000e+00 1.000000e+01 6.000000e+00 6.000000e+00 1.000000e+01 6.000000e+00 8.000000e+00 
1.000000e+01 8.000000e+00 2.000000e+00 1.000000e+01 8.000000e+00 4.000000e+00 1.000000e+01 8.000000e+00 6.000000e+00 
1.000000e+01 8.000000e+00 8.000000e+00 8.000000e+00 1.000000e+01 2.000000e+00 8.000000e+00 1.000000e+01 4.000000e+00 
8.000000e+00 1.000000e+01 6.000000e+00 8.000000e+00 1.000000e+01 8.000000e+00 6.000000e+00 1.000000e+01 2.000000e+00 
6.000000e+00 1.000000e+01 4.000000e+00 6.000000e+00 1.000000e+01 6.000000e+00 6.000000e+00 1.000000e+01 8.000000e+00 
4.000000e+00 1.000000e+01 2.000000e+00 4.000000e+00 1.000000e+01 4.000000e+00 4.000000e+00 1.000000e+01 6.000000e+00 
4.000000e+00 1.000000e+01 8.000000e+00 2.000000e+00 1.000000e+01 2.000000e+00 2.000000e+00 1.000000e+01 4.000000e+00 
2.000000e+00 1.000000e+01 6.000000e+00 2.000000e+00 1.000000e+01 8.000000e+00 0.000000e+00 8.000000e+00 2.000000e+00 
0.000000e+00 8.000000e+00 4.000000e+00 0.000000e+00 8.000000e+00 6.000000e+00 0.000000e+00 8.000000e+00 8.000000e+00 
0.000000e+00 6.000000e+00 2.000000e+00 0.000000e+00 6.000000e+00 4.000000e+00 0.000000e+00 6.000000e+00 6.000000e+00 
0.000000e+00 6.000000e+00 8.000000e+00 0.000000e+00 4.000000e+00 2.000000e+00 0.000000e+00 4.000000e+00 4.000000e+00 
0.000000e+00 4.000000e+00 6.000000e+00 0.000000e+00 4.000000e+00 8.000000e+00 0.000000e+00 2.000000e+00 2.000000e+00 
0.000000e+00 2.000000e+00 4.000000e+00 0.000000e+00 2.000000e+00 6.000000e+00 0.000000e+00 2.000000e+00 8.000000e+00 
1.323760e+00 5.060815e+00 1.000000e+01 8.267949e+00 5.000000e+00 1.000000e+01 4.886651e+00 8.362934e+00 1.000000e+01 
4.886651e+00 1.637066e+00 1.000000e+01 8.306456e+00 3.008475e+00 1.000000e+01 6.705676e+00 3.964489e+00 1.000000e+01 
6.727555e+00 6.031005e+00 1.000000e+01 4.803848e+00 5.000000e+00 1.000000e+01 3.001136e+00 1.693821e+00 1.000000e+01 
8.303769e+00 6.995292e+00 1.000000e+01 3.001136e+00 8.306179e+00 1.000000e+01 6.856861e+00 8.176623e+00 1.000000e+01 
6.836095e+00 1.882452e+00 1.000000e+01 1.865278e+00 6.842154e+00 1.000000e+01 1.724846e+00 3.140773e+00 1.000000e+01 
3.873807e+00 6.785386e+00 1.000000e+01 3.893144e+00 3.312774e+00 1.000000e+01 3.175843e+00 5.231080e+00 1.000000e+01 
8.535898e+00 8.535898e+00 1.000000e+01 1.464102e+00 8.535898e+00 1.000000e+01 1.464102e+00 1.464102e+00 1.000000e+01 
8.535898e+00 1.464102e+00 1.000000e+01 5.417981e+00 6.896970e+00 1.000000e+01 5.417981e+00 3.103030e+00 1.000000e+01 
1.323760e+00 5.060815e+00 2.000000e+00 1.323760e+00 5.060815e+00 4.000000e+00 1.323760e+00 5.060815e+00 6.000000e+00 
1.323760e+00 5.060815e+00 8.000000e+00 8.267949e+00 5.000000e+00 2.000000e+00 8.267949e+00 5.000000e+00 4.000000e+00 
8.267949e+00 5.000000e+00 6.000000e+00 8.267949e+00 5.000000e+00 8.000000e+00 4.886651e+00 8.362934e+00 2.000000e+00 
4.886651e+00 8.362934e+00 4.000000e+00 4.886651e+00 8.362934e+00 6.000000e+00 4.886651e+00 8.362934e+00 8.000000e+00 
4.886651e+00 1.637066e+00 2.000000e+00 4.886651e+00 1.637066e+00 4.000000e+00 4.886651e+00 1.637066e+00 6.000000e+00 
4.886651e+00 1.637066e+00 8.000000e+00 8.306456e+00 3.008475e+00 2.000000e+00 8.306456e+00 3.008475e+00 4.000000e+00 
8.306456e+00 3.008475e+00 6.000000e+00 8.306456e+00 3.008475e+00 8.000000e+00 6.705676e+00 3.964489e+00 2.000000e+00 
6.705676e+00 3.964489e+00 4.000000e+00 6.705676e+00 3.964489e+00 6.000000e+00 6.705676e+00 3.964489e+00 8.000000e+00 
6.727555e+00 6.031005e+00 2.000000e+00 6.727555e+00 6.031005e+00 4.000000e+00 6.727555e+00 6.031005e+00 6.000000e+00 
6.727555e+00 6.031005e+00 8.000000e+00 4.803848e+00 5.000000e+00 2.000000e+00 4.803848e+00 5.000000e+00 4.000000e+00 
4.803848e+00 5.000000e+00 6.000000e+00 4.803848e+00 5.000000e+00 8.000000e+00 3.001136e+00 1.693821e+00 2.000000e+00 
3.001136e+00 1.693821e+00 4.000000e+00 3.001136e+00 1.693821e+00 6.000000e+00 3.001136e+00 1.693821e+00 8.000000e+00 
8.303769e+00 6.995292e+00 2.000000e+00 8.303769e+00 6.995292e+00 4.000000e+00 8.303769e+00 6.995292e+00 6.000000e+00 
8.303769e+00 6.995292e+00 8.000000e+00 3.001136e+00 8.306179e+00 2.000000e+00 3.001136e+00 8.306179e+00 4.000000e+00 
3.001136e+00 8.306179e+00 6.000000e+00 3.001136e+00 8.306179e+00 8.000000e+00 6.856861e+00 8.176623e+00 2.000000e+00 
6.856861e+00 8.176623e+00 4.000000e+00 6.856861e+00 8.176623e+00 6.000000e+00 6.856861e+00 8.176623e+00 8.000000e+00 
6.836095e+00 1.882452e+00 2.000000e+00 6.836095e+00 1.882452e+00 4.000000e+00 6.836095e+00 1.882452e+00 6.000000e+00 
6.836095e+00 1.882452e+00 8.000000e+00 1.865278e+00 6.842154e+00 2.000000e+00 1.865278e+00 6.842154e+00 4.000000e+00 
1.865278e+00 6.842154e+00 6.000000e+00 1.865278e+00 6.842154e+00 8.000000e+00 1.724846e+00 3.140773e+00 2.000000e+00 
1.724846e+00 3.140773e+00 4.000000e+00 1.724846e+00 3.140773e+00 6.000000e+00 1.724846e+00 3.140773e+00 8.000000e+00 
3.873807e+00 6.785386e+00 2.000000e+00 3.873807e+00 6.785386e+00 4.000000e+00 3.873807e+00 6.785386e+00 6.000000e+00 
3.873807e+00 6.785386e+00 8.000000e+00 3.893144e+00 3.312774e+00 2.000000e+00 3.893144e+00 3.312774e+00 4.000000e+00 
3.893144e+00 3.312774e+00 6.000000e+00 3.893144e+00 3.312774e+00 8.000000e+00 3.175843e+00 5.231080e+00 2.000000e+00 
3.175843e+00 5.231080e+00 4.000000e+00 3.175843e+00 5.231080e+00 6.000000e+00 3.175843e+00 5.231080e+00 8.000000e+00 
8.535898e+00 8.535898e+00 2.000000e+00 8.535898e+00 8.535898e+00 4.000000e+00 8.535898e+00 8.535898e+00 6.000000e+00 
8.535898e+00 8.535898e+00 8.000000e+00 1.464102e+00 8.535898e+00 2.000000e+00 1.464102e+00 8.535898e+00 4.000000e+00 
1.464102e+00 8.535898e+00 6.000000e+00 1.464102e+00 8.535898e+00 8.000000e+00 1.464102e+00 1.464102e+00 2.000000e+00 
1.464102e+00 1.464102e+00 4.000000e+00 1.464102e+00 1.464102e+00 6.000000e+00 1.464102e+00 1.464102e+00 8.000000e+00 
8.535898e+00 1.464102e+00 2.000000e+00 8.535898e+00 1.464102e+00 4.000000e+00 8.535898e+00 1.464102e+00 6.000000e+00 
8.535898e+00 1.464102e+00 8.000000e+00 5.417981e+00 6.896970e+00 2.000000e+00 5.417981e+00 6.896970e+00 4.000000e+00 
5.417981e+00 6.896970e+00 6.000000e+00 5.417981e+00 6.896970e+00 8.000000e+00 5.417981e+00 3.103030e+00 2.000000e+00 
5.417981e+00 3.103030e+00 4.000000e+00 5.417981e+00 3.103030e+00 6.000000e+00 5.417981e+00 3.103030e+00 8.000000e+00 
2.000000e+00 2.000000e+00 2.000000e+00 5.000000e+00 2.000000e+00 2.000000e+00 8.000000e+00 2.000000e+00 2.000000e+00 
2.000000e+00 5.000000e+00 2.000000e+00 5.000000e+00 5.000000e+00 2.000000e+00 8.000000e+00 5.000000e+00 2.000000e+00 
2.000000e+00 8.000000e+00 2.000000e+00 5.000000e+00 8.000000e+00 2.000000e+00 8.000000e+00 8.000000e+00 2.000000e+00 
CELLS 334 2330
6 70 72 73 224 232 236 
6 224 232 236 225 233 237 
6 225 233 237 226 234 238 
6 226 234 238 227 235 239 
6 227 235 239 158 160 161 
6 56 70 73 168 224 236 
6 168 224 236 169 225 237 
6 169 225 237 170 226 238 
6 170 226 238 171 227 239 
6 171 227 239 144 158 161 
6 62 65 67 192 204 212 
6 192 204 212 193 205 213 
6 193 205 213 194 206 214 
6 194 206 214 195 207 215 
6 195 207 215 150 153 155 
6 60 61 68 184 188 216 
6 184 188 216 185 189 217 
6 185 189 217 186 190 218 
6 186 190 218 187 191 219 
6 187 191 219 148 149 156 
6 71 69 73 228 220 236 
6 228 220 236 229 221 237 
6 229 221 237 230 222 238 
6 230 222 238 231 223 239 
6 231 223 239 159 157 161 
6 66 69 71 208 220 228 
6 208 220 228 209 221 229 
6 209 221 229 210 222 230 
6 210 222 230 211 223 231 
6 211 223 231 154 157 159 
6 70 64 72 224 200 232 
6 224 200 232 225 201 233 
6 225 201 233 226 202 234 
6 226 202 234 227 203 235 
6 227 203 235 158 152 160 
6 62 67 78 192 212 256 
6 192 212 256 193 213 257 
6 193 213 257 194 214 258 
6 194 214 258 195 215 259 
6 195 215 259 150 155 166 
6 68 61 79 216 188 260 
6 216 188 260 217 189 261 
6 217 189 261 218 190 262 
6 218 190 262 219 191 263 
6 219 191 263 156 149 167 
6 13 14 57 100 104 172 
6 100 104 172 101 105 173 
6 101 105 173 102 106 174 
6 102 106 174 103 107 175 
6 103 107 175 29 30 145 
6 9 10 59 84 88 180 
6 84 88 180 85 89 181 
6 85 89 181 86 90 182 
6 86 90 182 87 91 183 
6 87 91 183 25 26 147 
6 14 15 65 104 108 204 
6 104 108 204 105 109 205 
6 105 109 205 106 110 206 
6 106 110 206 107 111 207 
6 107 111 207 30 31 153 
6 18 19 66 120 124 208 
6 120 124 208 121 125 209 
6 121 125 209 122 126 210 
6 122 126 210 123 127 211 
6 123 127 211 34 35 154 
6 17 18 58 116 120 176 
6 116 120 176 117 121 177 
6 117 121 177 118 122 178 
6 118 122 178 119 123 179 
6 119 123 179 33 34 146 
6 58 18 66 176 120 208 
6 176 120 208 177 121 209 
6 177 121 209 178 122 210 
6 178 122 210 179 123 211 
6 179 123 211 146 34 154 
6 61 57 62 188 172 192 
6 188 172 192 189 173 193 
6 189 173 193 190 174 194 
6 190 174 194 191 175 195 
6 191 175 195 149 145 150 
6 21 22 56 132 136 168 
6 132 136 168 133 137 169 
6 133 137 169 134 138 170 
6 134 138 170 135 139 171 
6 135 139 171 37 38 144 
6 61 62 63 188 192 196 
6 188 192 196 189 193 197 
6 189 193 197 190 194 198 
6 190 194 198 191 195 199 
6 191 195 199 149 150 151 
6 13 57 60 100 172 184 
6 100 172 184 101 173 185 
6 101 173 185 102 174 186 
6 102 174 186 103 175 187 
6 103 175 187 29 145 148 
6 62 57 65 192 172 204 
6 192 172 204 193 173 205 
6 193 173 205 194 174 206 
6 194 174 206 195 175 207 
6 195 175 207 150 145 153 
6 60 57 61 184 172 188 
6 184 172 188 185 173 189 
6 185 173 189 186 174 190 
6 186 174 190 187 175 191 
6 187 175 191 148 145 149 
6 57 14 65 172 104 204 
6 172 104 204 173 105 205 
6 173 105 205 174 106 206 
6 174 106 206 175 107 207 
6 175 107 207 145 30 153 
6 9 59 64 84 180 200 
6 84 180 200 85 181 201 
6 85 181 201 86 182 202 
6 86 182 202 87 183 203 
6 87 183 203 25 147 152 
6 12 13 60 96 100 184 
6 96 100 184 97 101 185 
6 97 101 185 98 102 186 
6 98 102 186 99 103 187 
6 99 103 187 28 29 148 
6 8 9 64 80 84 200 
6 80 84 200 81 85 201 
6 81 85 201 82 86 202 
6 82 86 202 83 87 203 
6 83 87 203 24 25 152 
6 69 56 73 220 168 236 
6 220 168 236 221 169 237 
6 221 169 237 222 170 238 
6 222 170 238 223 171 239 
6 223 171 239 157 144 161 
6 16 17 67 112 116 212 
6 112 116 212 113 117 213 
6 113 117 213 114 118 214 
6 114 118 214 115 119 215 
6 115 119 215 32 33 155 
6 10 11 68 88 92 216 
6 88 92 216 89 93 217 
6 89 93 217 90 94 218 
6 90 94 218 91 95 219 
6 91 95 219 26 27 156 
6 20 21 69 128 132 220 
6 128 132 220 129 133 221 
6 129 133 221 130 134 222 
6 130 134 222 131 135 223 
6 131 135 223 36 37 157 
6 22 23 70 136 140 224 
6 136 140 224 137 141 225 
6 137 141 225 138 142 226 
6 138 142 226 139 143 227 
6 139 143 227 38 39 158 
6 17 58 67 116 176 212 
6 116 176 212 117 177 213 
6 117 177 213 118 178 214 
6 118 178 214 119 179 215 
6 119 179 215 33 146 155 
6 21 56 69 132 168 220 
6 132 168 220 133 169 221 
6 133 169 221 134 170 222 
6 134 170 222 135 171 223 
6 135 171 223 37 144 157 
6 56 22 70 168 136 224 
6 168 136 224 169 137 225 
6 169 137 225 170 138 226 
6 170 138 226 171 139 227 
6 171 139 227 144 38 158 
6 59 10 68 180 88 216 
6 180 88 216 181 89 217 
6 181 89 217 182 90 218 
6 182 90 218 183 91 219 
6 183 91 219 147 26 156 
6 58 66 71 176 208 228 
6 176 208 228 177 209 229 
6 177 209 229 178 210 230 
6 178 210 230 179 211 231 
6 179 211 231 146 154 159 
6 64 59 72 200 180 232 
6 200 180 232 201 181 233 
6 201 181 233 202 182 234 
6 202 182 234 203 183 235 
6 203 183 235 152 147 160 
6 15 2 74 108 48 240 
6 108 48 240 109 49 241 
6 109 49 241 110 50 242 
6 110 50 242 111 51 243 
6 111 51 243 31 6 162 
6 2 16 74 48 112 240 
6 48 112 240 49 113 241 
6 49 113 241 50 114 242 
6 50 114 242 51 115 243 
6 51 115 243 6 32 162 
6 19 3 75 124 52 244 
6 124 52 244 125 53 245 
6 125 53 245 126 54 246 
6 126 54 246 127 55 247 
6 127 55 247 35 7 163 
6 3 20 75 52 128 244 
6 52 128 244 53 129 245 
6 53 129 245 54 130 246 
6 54 130 246 55 131 247 
6 55 131 247 7 36 163 
6 0 8 76 40 80 248 
6 40 80 248 41 81 249 
6 41 81 249 42 82 250 
6 42 82 250 43 83 251 
6 43 83 251 4 24 164 
6 1 12 77 44 96 252 
6 44 96 252 45 97 253 
6 45 97 253 46 98 254 
6 46 98 254 47 99 255 
6 47 99 255 5 28 165 
6 23 0 76 140 40 248 
6 140 40 248 141 41 249 
6 141 41 249 142 42 250 
6 142 42 250 143 43 251 
6 143 43 251 39 4 164 
6 11 1 77 92 44 252 
6 92 44 252 93 45 253 
6 93 45 253 94 46 254 
6 94 46 254 95 47 255 
6 95 47 255 27 5 165 
6 72 63 73 232 196 236 
6 232 196 236 233 197 237 
6 233 197 237 234 198 238 
6 234 198 238 235 199 239 
6 235 199 239 160 151 161 
6 63 62 78 196 192 256 
6 196 192 256 197 193 257 
6 197 193 257 198 194 258 
6 198 194 258 199 195 259 
6 199 195 259 151 150 166 
6 61 63 79 188 196 260 
6 188 196 260 189 197 261 
6 189 197 261 190 198 262 
6 190 198 262 191 199 263 
6 191 199 263 149 151 167 
6 67 58 78 212 176 256 
6 212 176 256 213 177 257 
6 213 177 257 214 178 258 
6 214 178 258 215 179 259 
6 215 179 259 155 146 166 
6 59 68 79 180 216 260 
6 180 216 260 181 217 261 
6 181 217 261 182 218 262 
6 182 218 262 183 219 263 
6 183 219 263 147 156 167 
6 71 63 78 228 196 256 
6 228 196 256 229 197 257 
6 229 197 257 230 198 258 
6 230 198 258 231 199 259 
6 231 199 259 159 151 166 
6 63 72 79 196 232 260 
6 196 232 260 197 233 261 
6 197 233 261 198 234 262 
6 198 234 262 199 235 263 
6 199 235 263 151 160 167 
6 68 11 77 216 92 252 
6 216 92 252 217 93 253 
6 217 93 253 218 94 254 
6 218 94 254 219 95 255 
6 219 95 255 156 27 165 
6 70 23 76 224 140 248 
6 224 140 248 225 141 249 
6 225 141 249 226 142 250 
6 226 142 250 227 143 251 
6 227 143 251 158 39 164 
6 20 69 75 128 220 244 
6 128 220 244 129 221 245 
6 129 221 245 130 222 246 
6 130 222 246 131 223 247 
6 131 223 247 36 157 163 
6 16 67 74 112 212 240 
6 112 212 240 113 213 241 
6 113 213 241 114 214 242 
6 114 214 242 115 215 243 
6 115 215 243 32 155 162 
6 65 15 74 204 108 240 
6 204 108 240 205 109 241 
6 205 109 241 206 110 242 
6 206 110 242 207 111 243 
6 207 111 243 153 31 162 
6 66 19 75 208 124 244 
6 208 124 244 209 125 245 
6 209 125 245 210 126 246 
6 210 126 246 211 127 247 
6 211 127 247 154 35 163 
6 12 60 77 96 184 252 
6 96 184 252 97 185 253 
6 97 185 253 98 186 254 
6 98 186 254 99 187 255 
6 99 187 255 28 148 165 
6 8 64 76 80 200 248 
6 80 200 248 81 201 249 
6 81 201 249 82 202 250 
6 82 202 250 83 203 251 
6 83 203 251 24 152 164 
6 60 68 77 184 216 252 
6 184 216 252 185 217 253 
6 185 217 253 186 218 254 
6 186 218 254 187 219 255 
6 187 219 255 148 156 165 
6 64 70 76 200 224 248 
6 200 224 248 201 225 249 
6 201 225 249 202 226 250 
6 202 226 250 203 227 251 
6 203 227 251 152 158 164 
6 69 66 75 220 208 244 
6 220 208 244 221 209 245 
6 221 209 245 222 210 246 
6 222 210 246 223 211 247 
6 223 211 247 157 154 163 
6 67 65 74 212 204 240 
6 212 204 240 213 205 241 
6 213 205 241 214 206 242 
6 214 206 242 215 207 243 
6 215 207 243 155 153 162 
6 63 71 73 196 228 236 
6 196 228 236 197 229 237 
6 197 229 237 198 230 238 
6 198 230 238 199 231 239 
6 199 231 239 151 159 161 
6 58 71 78 176 228 256 
6 176 228 256 177 229 257 
6 177 229 257 178 230 258 
6 178 230 258 179 231 259 
6 179 231 259 146 159 166 
6 72 59 79 232 180 260 
6 232 180 260 233 181 261 
6 233 181 261 234 182 262 
6 234 182 262 235 183 263 
6 235 183 263 160 147 167 
4 264 265 268 267 
4 265 266 269 268 
4 267 268 271 270 
4 268 269 272 271 
CELL_TYPES 334
13
13
13
13
13
13
13
13
13
13
13
13
13
13
13
13
13
13
13
13
13
13
13
13
13
13
13
13
13
13
13
13
13
13
13
13
13
13
13
13
13
13
13
13
13
13
13
13
13
13
13
13
13
13
13
13
13
13
13
13
13
13
13
13
13
13
13
13
13
13
13
13
13
13
13
13
13
13
13
13
13
13
13
13
13
13
13
13
13
13
13
13
13
13
13
13
13
13
13
13
13
13
13
13
13
13
13
13
13
13
13
13
13
13
13
13
13
13
13
13
13
13
13
13
13
13
13
13
13
13
13
13
13
13
13
13
13
13
13
13
13
13
13
13
13
13
13
13
13
13
13
13
13
13
13
13
13
13
13
13
13
13
13
13
13
13
13
13
13
13
13
13
13
13
13
13
13
13
13
13
13
13
13
13
13
13
13
13
13
13
13
13
13
13
13
13
13
13
13
13
13
13
13
13
13
13
13
13
13
13
13
13
13
13
13
13
13
13
13
13
13
13
13
13
13
13
13
13
13
13
13
13
13
13
13
13
13
13
13
13
13
13
13
13
13
13
13
13
13
13
13
13
13
13
13
13
13
13
13
13
13
13
13
13
13
13
13
13
13
13
13
13
13
13
13
13
13
13
13
13
13
13
13
13
13
13
13
13
13
13
13
13
13
13
13
13
13
13
13
13
13
13
13
13
13
13
13
13
13
13
13
13
13
13
13
13
13
13
13
13
13
13
13
13
13
13
13
13
13
13
9
9
9
9
CELL_DATA 334
SCALARS DomainID int 1
LOOKUP_TABLE default
0
0
0
0
0
0
0
0
0
0
0
0
0
0
0
0
0
0
0
0
0
0
0
0
0
0
0
0
0
0
0
0
0
0
0
0
0
0
0
0
0
0
0
0
0
0
0
0
0
0
0
0
0
0
0
0
0
0
0
0
0
0
0
0
0
0
0
0
0
0
0
0
0
0
0
0
0
0
0
0
0
0
0
0
0
0
0
0
0
0
0
0
0
0
0
0
0
0
0
0
0
0
0
0
0
0
0
0
0
0
0
0
0
0
0
0
0
0
0
0
0
0
0
0
0
0
0
0
0
0
0
0
0
0
0
0
0
0
0
0
0
0
0
0
0
0
0
0
0
0
0
0
0
0
0
0
0
0
0
0
0
0
0
0
0
0
0
0
0
0
0
0
0
0
0
0
0
0
0
0
0
0
0
0
0
0
0
0
0
0
0
0
0
0
0
0
0
0
0
0
0
0
0
0
0
0
0
0
0
0
0
0
0
0
0
0
0
0
0
0
0
0
0
0
0
0
0
0
0
0
0
0
0
0
0
0
0
0
0
0
0
0
0
0
0
0
0
0
0
0
0
0
0
0
0
0
0
0
0
0
0
0
0
0
0
0
0
0
0
0
0
0
0
0
0
0
0
0
0
0
0
0
0
0
0
0
0
0
0
0
0
0
0
0
0
0
0
0
0
0
0
0
0
0
0
0
0
0
0
0
0
0
0
0
0
0
0
0
0
0
0
0
0
0
0
0
0
0
0
0
1
1
1
1
SCALARS Pressure double 1
LOOKUP_TABLE default
2.000000e+05
2.000000e+05
2.000000e+05
2.000000e+05
2.000000e+05
2.000000e+05
2.000000e+05
2.000000e+05
2.000000e+05
2.000000e+05
2.000000e+05
2.000000e+05
2.000000e+05
2.000000e+05
2.000000e+05
2.000000e+05
2.000000e+05
2.000000e+05
2.000000e+05
2.000000e+05
2.000000e+05
2.000000e+05
2.000000e+05
2.000000e+05
2.000000e+05
2.000000e+05
2.000000e+05
2.000000e+05
2.000000e+05
2.000000e+05
2.000000e+05
2.000000e+05
2.000000e+05
2.000000e+05
2.000000e+05
2.000000e+05
2.000000e+05
2.000000e+05
2.000000e+05
2.000000e+05
2.000000e+05
2.000000e+05
2.000000e+05
2.000000e+05
2.000000e+05
2.000000e+05
2.000000e+05
2.000000e+05
2.000000e+05
2.000000e+05
2.000000e+05
2.000000e+05
2.000000e+05
2.000000e+05
2.000000e+05
2.000000e+05
2.000000e+05
2.000000e+05
2.000000e+05
2.000000e+05
2.000000e+05
2.000000e+05
2.000000e+05
2.000000e+05
2.000000e+05
2.000000e+05
2.000000e+05
2.000000e+05
2.000000e+05
2.000000e+05
2.000000e+05
2.000000e+05
2.000000e+05
2.000000e+05
2.000000e+05
2.000000e+05
2.000000e+05
2.000000e+05
2.000000e+05
2.000000e+05
2.000000e+05
2.000000e+05
2.000000e+05
2.000000e+05
2.000000e+05
2.000000e+05
2.000000e+05
2.000000e+05
2.000000e+05
2.000000e+05
2.000000e+05
2.000000e+05
2.000000e+05
2.000000e+05
2.000000e+05
2.000000e+05
2.000000e+05
2.000000e+05
2.000000e+05
2.000000e+05
2.000000e+05
2.000000e+05
2.000000e+05
2.000000e+05
2.000000e+05
2.000000e+05
2.000000e+05
2.000000e+05
2.000000e+05
2.000000e+05
2.000000e+05
2.000000e+05
2.000000e+05
2.000000e+05
2.000000e+05
2.000000e+05
2.000000e+05
2.000000e+05
2.000000e+05
2.000000e+05
2.000000e+05
2.000000e+05
2.000000e+05
2.000000e+05
2.000000e+05
2.000000e+05
2.000000e+05
2.000000e+05
2.000000e+05
2.000000e+05
2.000000e+05
2.000000e+05
2.000000e+05
2.000000e+05
2.000000e+05
2.000000e+05
2.000000e+05
2.000000e+05
2.000000e+05
2.000000e+05
2.000000e+05
2.000000e+05
2.000000e+05
2.000000e+05
2.000000e+05
2.000000e+05
2.000000e+05
2.000000e+05
2.000000e+05
2.000000e+05
2.000000e+05
2.000000e+05
2.000000e+05
2.000000e+05
2.000000e+05
2.000000e+05
2.000000e+05
2.000000e+05
2.000000e+05
2.000000e+05
2.000000e+05
2.000000e+05
2.000000e+05
2.000000e+05
2.000000e+05
2.000000e+05
2.000000e+05
2.000000e+05
2.000000e+05
2.000000e+05
2.000000e+05
2.000000e+05
2.000000e+05
2.000000e+05
2.000000e+05
2.000000e+05
2.000000e+05
2.000000e+05
2.000000e+05
2.000000e+05
2.000000e+05
2.000000e+05
2.000000e+05
2.000000e+05
2.000000e+05
2.000000e+05
2.000000e+05
2.000000e+05
2.000000e+05
2.000000e+05
2.000000e+05
2.000000e+05
2.000000e+05
2.000000e+05
2.000000e+05
2.000000e+05
2.000000e+05
2.000000e+05
2.000000e+05
2.000000e+05
2.000000e+05
2.000000e+05
2.000000e+05
2.000000e+05
2.000000e+05
2.000000e+05
2.000000e+05
2.000000e+05
2.000000e+05
2.000000e+05
2.000000e+05
2.000000e+05
2.000000e+05
2.000000e+05
2.000000e+05
2.000000e+05
2.000000e+05
2.000000e+05
2.000000e+05
2.000000e+05
2.000000e+05
2.000000e+05
2.000000e+05
2.000000e+05
2.000000e+05
2.000000e+05
2.000000e+05
2.000000e+05
2.000000e+05
2.000000e+05
2.000000e+05
2.000000e+05
2.000000e+05
2.000000e+05
2.000000e+05
2.000000e+05
2.000000e+05
2.000000e+05
2.000000e+05
2.000000e+05
2.000000e+05
2.000000e+05
2.000000e+05
2.000000e+05
2.000000e+05
2.000000e+05
2.000000e+05
2.000000e+05
2.000000e+05
2.000000e+05
2.000000e+05
2.000000e+05
2.000000e+05
2.000000e+05
2.000000e+05
2.000000e+05
2.000000e+05
2.000000e+05
2.000000e+05
2.000000e+05
2.000000e+05
2.000000e+05
2.000000e+05
2.000000e+05
2.000000e+05
2.000000e+05
2.000000e+05
2.000000e+05
2.000000e+05
2.000000e+05
2.000000e+05
2.000000e+05
2.000000e+05
2.000000e+05
2.000000e+05
2.000000e+05
2.000000e+05
2.000000e+05
2.000000e+05
2.000000e+05
2.000000e+05
2.000000e+05
2.000000e+05
2.000000e+05
2.000000e+05
2.000000e+05
2.000000e+05
2.000000e+05
2.000000e+05
2.000000e+05
2.000000e+05
2.000000e+05
2.000000e+05
2.000000e+05
2.000000e+05
2.000000e+05
2.000000e+05
2.000000e+05
2.000000e+05
2.000000e+05
2.000000e+05
2.000000e+05
2.000000e+05
2.000000e+05
2.000000e+05
2.000000e+05
2.000000e+05
2.000000e+05
2.000000e+05
2.000000e+05
2.000000e+05
2.000000e+05
2.000000e+05
2.000000e+05
2.000000e+05
2.000000e+05
2.000000e+05
2.000000e+05
2.000000e+05
2.000000e+05
2.000000e+05
2.000000e+05
2.000000e+05
2.000000e+05
2.000000e+05
2.000000e+05
2.000000e+05
2.000000e+05
2.000000e+05
2.000000e+05
0.0
0.0
0.0
0.0
SCALARS Residual_Pressure double 1
LOOKUP_TABLE default
2.141417e-06
0.000000e+00
0.000000e+00
0.000000e+00
2.141417e-06
1.812184e-06
0.000000e+00
0.000000e+00
0.000000e+00
1.812184e-06
1.628632e-06
0.000000e+00
0.000000e+00
0.000000e+00
1.628632e-06
1.604100e-06
0.000000e+00
0.000000e+00
0.000000e+00
1.604100e-06
1.580745e-06
0.000000e+00
0.000000e+00
0.000000e+00
1.580745e-06
1.502508e-06
0.000000e+00
0.000000e+00
0.000000e+00
1.502508e-06
1.678473e-06
0.000000e+00
0.000000e+00
0.000000e+00
1.678473e-06
1.460909e-06
0.000000e+00
0.000000e+00
0.000000e+00
1.460909e-06
1.396689e-06
0.000000e+00
0.000000e+00
0.000000e+00
1.396689e-06
5.732051e-06
4.000000e-06
4.000000e-06
4.000000e-06
5.732051e-06
5.637066e-06
4.000000e-06
4.000000e-06
4.000000e-06
5.637066e-06
5.696231e-06
4.000000e-06
4.000000e-06
4.000000e-06
5.696231e-06
5.693821e-06
4.000000e-06
4.000000e-06
4.000000e-06
5.693821e-06
5.637066e-06
4.000000e-06
4.000000e-06
4.000000e-06
5.637066e-06
1.568518e-06
0.000000e+00
0.000000e+00
0.000000e+00
1.568518e-06
1.602904e-06
0.000000e+00
0.000000e+00
0.000000e+00
1.602904e-06
5.323760e-06
4.000000e-06
4.000000e-06
4.000000e-06
5.323760e-06
1.976408e-06
0.000000e+00
0.000000e+00
0.000000e+00
1.976408e-06
1.705458e-06
0.000000e+00
0.000000e+00
0.000000e+00
1.705458e-06
1.555234e-06
0.000000e+00
0.000000e+00
0.000000e+00
1.555234e-06
1.575590e-06
0.000000e+00
0.000000e+00
0.000000e+00
1.575590e-06
1.710063e-06
0.000000e+00
0.000000e+00
0.000000e+00
1.710063e-06
1.568518e-06
0.000000e+00
0.000000e+00
0.000000e+00
1.568518e-06
5.693544e-06
4.000000e-06
4.000000e-06
4.000000e-06
5.693544e-06
5.693821e-06
4.000000e-06
4.000000e-06
4.000000e-06
5.693821e-06
1.603493e-06
0.000000e+00
0.000000e+00
0.000000e+00
1.603493e-06
5.823377e-06
4.000000e-06
4.000000e-06
4.000000e-06
5.823377e-06
5.882452e-06
4.000000e-06
4.000000e-06
4.000000e-06
5.882452e-06
5.865278e-06
4.000000e-06
4.000000e-06
4.000000e-06
5.865278e-06
5.724846e-06
4.000000e-06
4.000000e-06
4.000000e-06
5.724846e-06
1.716397e-06
0.000000e+00
0.000000e+00
0.000000e+00
1.716397e-06
1.433326e-06
0.000000e+00
0.000000e+00
0.000000e+00
1.433326e-06
1.483577e-06
0.000000e+00
0.000000e+00
0.000000e+00
1.483577e-06
1.732284e-06
0.000000e+00
0.000000e+00
0.000000e+00
1.732284e-06
1.458503e-06
0.000000e+00
0.000000e+00
0.000000e+00
1.458503e-06
1.551593e-06
0.000000e+00
0.000000e+00
0.000000e+00
1.551593e-06
5.464102e-06
4.000000e-06
4.000000e-06
4.000000e-06
5.464102e-06
5.464102e-06
4.000000e-06
4.000000e-06
4.000000e-06
5.464102e-06
5.464102e-06
4.000000e-06
4.000000e-06
4.000000e-06
5.464102e-06
5.464102e-06
4.000000e-06
4.000000e-06
4.000000e-06
5.464102e-06
5.464102e-06
4.000000e-06
4.000000e-06
4.000000e-06
5.464102e-06
5.464102e-06
4.000000e-06
4.000000e-06
4.000000e-06
5.464102e-06
5.464102e-06
4.000000e-06
4.000000e-06
4.000000e-06
5.464102e-06
5.464102e-06
4.000000e-06
4.000000e-06
4.000000e-06
5.464102e-06
1.478628e-06
0.000000e+00
0.000000e+00
0.000000e+00
1.478628e-06
1.508019e-06
0.000000e+00
0.000000e+00
0.000000e+00
1.508019e-06
1.485884e-06
0.000000e+00
0.000000e+00
0.000000e+00
1.485884e-06
1.394633e-06
0.000000e+00
0.000000e+00
0.000000e+00
1.394633e-06
1.363717e-06
0.000000e+00
0.000000e+00
0.000000e+00
1.363717e-06
1.430362e-06
0.000000e+00
0.000000e+00
0.000000e+00
1.430362e-06
1.381880e-06
0.000000e+00
0.000000e+00
0.000000e+00
1.381880e-06
1.356439e-06
0.000000e+00
0.000000e+00
0.000000e+00
1.356439e-06
1.297275e-06
0.000000e+00
0.000000e+00
0.000000e+00
1.297275e-06
1.347402e-06
0.000000e+00
0.000000e+00
0.000000e+00
1.347402e-06
1.325408e-06
0.000000e+00
0.000000e+00
0.000000e+00
1.325408e-06
1.190001e-06
0.000000e+00
0.000000e+00
0.000000e+00
1.190001e-06
1.186740e-06
0.000000e+00
0.000000e+00
0.000000e+00
1.186740e-06
1.192039e-06
0.000000e+00
0.000000e+00
0.000000e+00
1.192039e-06
1.186740e-06
0.000000e+00
0.000000e+00
0.000000e+00
1.186740e-06
1.264572e-06
0.000000e+00
0.000000e+00
0.000000e+00
1.264572e-06
1.258602e-06
0.000000e+00
0.000000e+00
0.000000e+00
1.258602e-06
1.255592e-06
0.000000e+00
0.000000e+00
0.000000e+00
1.255592e-06
1.251669e-06
0.000000e+00
0.000000e+00
0.000000e+00
1.251669e-06
1.345851e-06
0.000000e+00
0.000000e+00
0.000000e+00
1.345851e-06
1.161496e-06
0.000000e+00
0.000000e+00
0.000000e+00
1.161496e-06
1.173400e-06
0.000000e+00
0.000000e+00
0.000000e+00
1.173400e-06
0.0
0.0
0.0
0.0
