# vtk DataFile Version 3.0
2D-EDFM Simulation Result (Time: 0.000000e+00)
ASCII
DATASET UNSTRUCTURED_GRID
POINTS 183 double
0.000000e+00 0.000000e+00 0.0 1.000000e+01 0.000000e+00 0.0 1.000000e+01 1.000000e+01 0.0 
0.000000e+00 1.000000e+01 0.0 1.000000e+00 0.000000e+00 0.0 2.000000e+00 0.000000e+00 0.0 
3.000000e+00 0.000000e+00 0.0 4.000000e+00 0.000000e+00 0.0 5.000000e+00 0.000000e+00 0.0 
6.000000e+00 0.000000e+00 0.0 7.000000e+00 0.000000e+00 0.0 8.000000e+00 0.000000e+00 0.0 
9.000000e+00 0.000000e+00 0.0 1.000000e+01 1.000000e+00 0.0 1.000000e+01 2.000000e+00 0.0 
1.000000e+01 3.000000e+00 0.0 1.000000e+01 4.000000e+00 0.0 1.000000e+01 5.000000e+00 0.0 
1.000000e+01 6.000000e+00 0.0 1.000000e+01 7.000000e+00 0.0 1.000000e+01 8.000000e+00 0.0 
1.000000e+01 9.000000e+00 0.0 9.000000e+00 1.000000e+01 0.0 8.000000e+00 1.000000e+01 0.0 
7.000000e+00 1.000000e+01 0.0 6.000000e+00 1.000000e+01 0.0 5.000000e+00 1.000000e+01 0.0 
4.000000e+00 1.000000e+01 0.0 3.000000e+00 1.000000e+01 0.0 2.000000e+00 1.000000e+01 0.0 
1.000000e+00 1.000000e+01 0.0 0.000000e+00 9.000000e+00 0.0 0.000000e+00 8.000000e+00 0.0 
0.000000e+00 7.000000e+00 0.0 0.000000e+00 6.000000e+00 0.0 0.000000e+00 5.000000e+00 0.0 
0.000000e+00 4.000000e+00 0.0 0.000000e+00 3.000000e+00 0.0 0.000000e+00 2.000000e+00 0.0 
0.000000e+00 1.000000e+00 0.0 9.064537e+00 5.370360e+00 0.0 9.500009e-01 5.360897e+00 0.0 
4.500000e+00 8.660254e-01 0.0 4.500000e+00 9.133975e+00 0.0 6.500000e+00 8.660254e-01 0.0 
9.111457e+00 3.490798e+00 0.0 9.065941e-01 3.484615e+00 0.0 6.500000e+00 9.133975e+00 0.0 
8.872510e-01 7.479585e+00 0.0 2.508173e+00 8.613067e-01 0.0 9.112749e+00 7.479585e+00 0.0 
2.531925e+00 9.199359e+00 0.0 8.461325e+00 8.436963e-01 0.0 8.445559e+00 9.045047e+00 0.0 
9.056972e-01 1.591826e+00 0.0 7.493554e+00 8.623039e-01 0.0 6.998926e+00 1.731431e+00 0.0 
5.999821e+00 1.731947e+00 0.0 6.499791e+00 2.597956e+00 0.0 5.499935e+00 2.598039e+00 0.0 
5.999954e+00 3.464075e+00 0.0 4.999982e+00 3.464091e+00 0.0 5.499989e+00 4.330121e+00 0.0 
4.499995e+00 4.330124e+00 0.0 4.999997e+00 5.196151e+00 0.0 5.999998e+00 5.196151e+00 0.0 
5.500000e+00 6.062178e+00 0.0 4.500000e+00 6.062178e+00 0.0 3.999996e+00 3.464099e+00 0.0 
6.500891e+00 6.061663e+00 0.0 3.499999e+00 4.330126e+00 0.0 7.000000e+00 5.196152e+00 0.0 
6.000148e+00 6.928117e+00 0.0 2.999999e+00 3.464101e+00 0.0 7.001064e+00 6.927589e+00 0.0 
3.499999e+00 2.598076e+00 0.0 7.006392e+00 3.467792e+00 0.0 2.500000e+00 4.330127e+00 0.0 
3.000000e+00 5.196152e+00 0.0 2.500000e+00 2.598076e+00 0.0 6.500000e+00 7.794229e+00 0.0 
7.481156e+00 7.782761e+00 0.0 5.500000e+00 7.794229e+00 0.0 8.143151e+00 6.968028e+00 0.0 
2.000000e+00 5.196152e+00 0.0 2.517949e+00 6.051815e+00 0.0 1.503914e+00 4.372404e+00 0.0 
3.001362e+00 1.731264e+00 0.0 1.994045e+00 1.703044e+00 0.0 1.496035e+00 2.556944e+00 0.0 
4.000227e+00 1.731920e+00 0.0 5.000000e+00 1.732051e+00 0.0 7.992301e+00 1.727606e+00 0.0 
9.078815e+00 1.628776e+00 0.0 8.500000e+00 2.598076e+00 0.0 7.499568e+00 2.597827e+00 0.0 
8.032601e+00 3.475758e+00 0.0 8.527722e+00 4.385681e+00 0.0 7.538604e+00 4.352415e+00 0.0 
8.043223e+00 5.216044e+00 0.0 7.505347e+00 6.059091e+00 0.0 5.499970e+00 8.660082e-01 0.0 
5.000025e+00 6.928189e+00 0.0 4.000004e+00 6.928201e+00 0.0 4.500000e+00 7.794229e+00 0.0 
3.500000e+00 7.794229e+00 0.0 3.002992e+00 6.926476e+00 0.0 2.519091e+00 7.782693e+00 0.0 
1.860110e+00 6.962702e+00 0.0 9.133975e+00 6.500000e+00 0.0 4.500023e+00 2.598046e+00 0.0 
1.559001e+00 9.054388e+00 0.0 3.503491e+00 6.060162e+00 0.0 8.660254e-01 6.500000e+00 0.0 
3.500000e+00 9.133975e+00 0.0 5.500000e+00 9.133975e+00 0.0 4.000580e+00 5.195816e+00 0.0 
7.459001e+00 9.184537e+00 0.0 6.507489e+00 4.334451e+00 0.0 1.984424e+00 3.467711e+00 0.0 
3.501627e+00 8.650860e-01 0.0 1.530674e+00 8.212784e-01 0.0 9.201082e+00 8.465154e+00 0.0 
7.996784e-01 8.466711e+00 0.0 8.380233e+00 7.998343e+00 0.0 1.619767e+00 7.998343e+00 0.0 
1.615796e+00 6.003726e+00 0.0 8.385065e+00 6.027236e+00 0.0 6.762856e-01 4.500000e+00 0.0 
9.332191e+00 2.511331e+00 0.0 6.616652e-01 2.526677e+00 0.0 7.000000e+00 8.464102e+00 0.0 
6.000000e+00 8.464102e+00 0.0 5.000000e+00 8.464102e+00 0.0 4.000000e+00 8.464102e+00 0.0 
3.000000e+00 8.464102e+00 0.0 9.347437e+00 4.500000e+00 0.0 9.267949e+00 7.320508e-01 0.0 
7.320508e-01 7.320508e-01 0.0 7.320508e-01 9.267949e+00 0.0 9.267949e+00 9.267949e+00 0.0 
2.245957e+00 8.499777e+00 0.0 7.768978e+00 8.486142e+00 0.0 2.000000e+00 2.000000e+00 0.0 
2.372462e+00 2.372462e+00 0.0 2.372462e+00 2.372462e+00 0.0 2.535940e+00 2.535940e+00 0.0 
2.535940e+00 2.535940e+00 0.0 2.598076e+00 2.598076e+00 0.0 2.598076e+00 2.598076e+00 0.0 
3.169872e+00 3.169872e+00 0.0 3.169872e+00 3.169872e+00 0.0 3.464100e+00 3.464100e+00 0.0 
3.464100e+00 3.464100e+00 0.0 3.803845e+00 3.803845e+00 0.0 3.803845e+00 3.803845e+00 0.0 
4.330125e+00 4.330125e+00 0.0 4.330125e+00 4.330125e+00 0.0 4.437849e+00 4.437849e+00 0.0 
4.437849e+00 4.437849e+00 0.0 4.732045e+00 4.732045e+00 0.0 4.732045e+00 4.732045e+00 0.0 
5.071794e+00 5.071794e+00 0.0 5.071794e+00 5.071794e+00 0.0 5.196151e+00 5.196151e+00 0.0 
5.196151e+00 5.196151e+00 0.0 5.705770e+00 5.705770e+00 0.0 5.705770e+00 5.705770e+00 0.0 
6.061889e+00 6.061889e+00 0.0 6.061889e+00 6.061889e+00 0.0 6.340022e+00 6.340022e+00 0.0 
6.340022e+00 6.340022e+00 0.0 6.927627e+00 6.927627e+00 0.0 6.927627e+00 6.927627e+00 0.0 
6.974146e+00 6.974146e+00 0.0 6.974146e+00 6.974146e+00 0.0 7.095111e+00 7.095111e+00 0.0 
7.095111e+00 7.095111e+00 0.0 7.616361e+00 7.616361e+00 0.0 7.616361e+00 7.616361e+00 0.0 
7.877891e+00 7.877891e+00 0.0 7.877891e+00 7.877891e+00 0.0 8.000000e+00 8.000000e+00 0.0 
CELLS 264 1036
3 84 41 86 
3 50 83 109 
3 108 48 113 
3 97 40 99 
3 54 88 89 
3 86 41 128 
3 83 50 124 
3 48 108 125 
3 40 97 136 
3 13 14 93 
3 54 89 130 
3 94 45 96 
3 46 89 119 
3 13 93 137 
3 96 45 97 
3 108 113 126 
3 86 46 119 
3 109 83 127 
3 88 54 121 
3 81 83 124 
3 108 107 125 
3 41 84 126 
3 76 98 118 
3 122 53 124 
3 111 123 125 
3 71 98 99 
3 71 99 100 
3 76 96 98 
3 98 71 118 
3 96 97 98 
3 74 69 100 
3 89 46 130 
3 45 94 129 
3 69 71 100 
3 83 74 100 
3 98 97 99 
3 49 87 88 
3 90 87 120 
3 87 49 120 
3 42 90 120 
3 90 42 91 
3 91 42 101 
3 91 59 110 
3 92 52 93 
3 90 91 110 
3 85 106 108 
3 55 52 92 
3 76 95 96 
3 11 52 55 
3 112 78 116 
3 75 79 87 
3 92 93 94 
3 95 94 96 
3 106 85 112 
3 7 8 42 
3 59 61 110 
3 85 78 112 
3 57 91 101 
3 11 12 52 
3 68 73 75 
3 61 63 68 
3 92 94 95 
3 67 102 103 
3 76 58 95 
3 87 79 88 
3 67 66 102 
3 40 18 109 
3 38 39 54 
3 56 55 92 
3 70 63 116 
3 68 63 70 
3 75 73 79 
3 56 92 95 
3 44 10 55 
3 78 70 116 
3 44 57 101 
3 10 11 55 
3 68 70 73 
3 57 59 91 
3 102 82 104 
3 8 9 101 
3 9 44 101 
3 103 102 104 
3 19 50 109 
3 72 80 82 
3 59 60 61 
3 17 18 40 
3 60 58 76 
3 61 62 63 
3 19 20 50 
3 61 60 62 
3 66 72 102 
3 59 58 60 
3 57 58 59 
3 103 104 105 
3 44 55 56 
3 63 62 64 
3 64 66 67 
3 60 76 118 
3 72 74 80 
3 18 19 109 
3 106 105 107 
3 58 56 95 
3 67 112 116 
3 66 69 72 
3 57 56 58 
3 103 105 106 
3 72 82 102 
3 64 65 66 
3 63 64 116 
3 9 10 44 
3 106 107 108 
3 73 70 77 
3 77 78 84 
3 67 103 112 
3 103 106 112 
3 77 84 86 
3 80 74 81 
3 79 73 119 
3 64 62 65 
3 89 79 119 
3 84 78 85 
3 29 30 111 
3 28 29 51 
3 32 33 48 
3 51 29 111 
3 27 28 114 
3 33 34 113 
3 48 33 113 
3 28 51 114 
3 34 35 41 
3 26 27 43 
3 72 69 74 
3 44 56 57 
3 43 27 114 
3 66 65 69 
3 64 67 116 
3 34 41 113 
3 77 70 78 
3 77 86 119 
3 71 65 118 
3 25 26 115 
3 61 68 110 
3 65 62 118 
3 26 43 115 
3 69 65 71 
3 36 37 46 
3 24 25 47 
3 62 60 118 
3 68 75 110 
3 47 25 115 
3 23 24 117 
3 73 77 119 
3 81 74 83 
3 22 23 53 
3 88 79 89 
3 75 87 90 
3 24 47 117 
3 53 23 117 
3 5 6 49 
3 42 8 101 
3 75 90 110 
3 7 42 120 
3 15 16 45 
3 6 7 120 
3 49 6 120 
3 99 40 127 
3 124 53 142 
3 111 125 141 
3 49 88 121 
3 4 5 121 
3 20 21 122 
3 31 32 123 
3 46 86 128 
3 97 45 136 
3 85 108 126 
3 5 49 121 
3 50 20 122 
3 32 48 123 
3 41 35 128 
3 36 46 128 
3 38 54 130 
3 46 37 130 
3 15 45 129 
3 17 40 136 
3 45 16 136 
3 83 100 127 
3 1 13 137 
3 93 52 137 
3 12 1 137 
3 0 4 138 
3 39 0 138 
3 30 3 139 
3 3 31 139 
3 21 2 140 
3 2 22 140 
3 40 109 127 
3 113 41 126 
3 84 85 126 
3 100 99 127 
3 93 14 129 
3 50 122 124 
3 123 48 125 
3 53 117 142 
3 51 111 141 
3 35 36 128 
3 14 15 129 
3 94 93 129 
3 104 82 133 
3 107 105 135 
3 105 104 134 
3 105 134 135 
3 82 80 132 
3 104 133 134 
3 80 81 131 
3 82 132 133 
3 80 131 132 
3 37 38 130 
3 117 47 131 
3 47 115 132 
3 131 47 132 
3 115 43 133 
3 132 115 133 
3 133 43 134 
3 43 114 134 
3 114 51 135 
3 134 114 135 
3 16 17 136 
3 122 21 140 
3 31 123 139 
3 4 121 138 
3 52 12 137 
3 54 39 138 
3 111 30 139 
3 22 53 140 
3 53 122 140 
3 123 111 139 
3 121 54 138 
3 81 124 142 
3 125 107 141 
3 107 135 141 
3 135 51 141 
3 117 131 142 
3 131 81 142 
2 143 144
2 145 146
2 147 148
2 149 150
2 151 152
2 153 154
2 155 156
2 157 158
2 159 160
2 161 162
2 163 164
2 165 166
2 167 168
2 169 170
2 171 172
2 173 174
2 175 176
2 177 178
2 179 180
2 181 182
CELL_TYPES 264
5
5
5
5
5
5
5
5
5
5
5
5
5
5
5
5
5
5
5
5
5
5
5
5
5
5
5
5
5
5
5
5
5
5
5
5
5
5
5
5
5
5
5
5
5
5
5
5
5
5
5
5
5
5
5
5
5
5
5
5
5
5
5
5
5
5
5
5
5
5
5
5
5
5
5
5
5
5
5
5
5
5
5
5
5
5
5
5
5
5
5
5
5
5
5
5
5
5
5
5
5
5
5
5
5
5
5
5
5
5
5
5
5
5
5
5
5
5
5
5
5
5
5
5
5
5
5
5
5
5
5
5
5
5
5
5
5
5
5
5
5
5
5
5
5
5
5
5
5
5
5
5
5
5
5
5
5
5
5
5
5
5
5
5
5
5
5
5
5
5
5
5
5
5
5
5
5
5
5
5
5
5
5
5
5
5
5
5
5
5
5
5
5
5
5
5
5
5
5
5
5
5
5
5
5
5
5
5
5
5
5
5
5
5
5
5
5
5
5
5
5
5
5
5
5
5
5
5
5
5
5
5
5
5
5
5
5
5
5
5
5
5
5
5
3
3
3
3
3
3
3
3
3
3
3
3
3
3
3
3
3
3
3
3
CELL_DATA 264
SCALARS DomainID int 1
LOOKUP_TABLE default
0
0
0
0
0
0
0
0
0
0
0
0
0
0
0
0
0
0
0
0
0
0
0
0
0
0
0
0
0
0
0
0
0
0
0
0
0
0
0
0
0
0
0
0
0
0
0
0
0
0
0
0
0
0
0
0
0
0
0
0
0
0
0
0
0
0
0
0
0
0
0
0
0
0
0
0
0
0
0
0
0
0
0
0
0
0
0
0
0
0
0
0
0
0
0
0
0
0
0
0
0
0
0
0
0
0
0
0
0
0
0
0
0
0
0
0
0
0
0
0
0
0
0
0
0
0
0
0
0
0
0
0
0
0
0
0
0
0
0
0
0
0
0
0
0
0
0
0
0
0
0
0
0
0
0
0
0
0
0
0
0
0
0
0
0
0
0
0
0
0
0
0
0
0
0
0
0
0
0
0
0
0
0
0
0
0
0
0
0
0
0
0
0
0
0
0
0
0
0
0
0
0
0
0
0
0
0
0
0
0
0
0
0
0
0
0
0
0
0
0
0
0
0
0
0
0
0
0
0
0
0
0
0
0
0
0
0
0
0
0
0
0
0
0
1
1
1
1
1
1
1
1
1
1
1
1
1
1
1
1
1
1
1
1
SCALARS Pressure double 1
LOOKUP_TABLE default
2.000000e+05
2.000000e+05
2.000000e+05
2.000000e+05
2.000000e+05
2.000000e+05
2.000000e+05
2.000000e+05
2.000000e+05
2.000000e+05
2.000000e+05
2.000000e+05
2.000000e+05
2.000000e+05
2.000000e+05
2.000000e+05
2.000000e+05
2.000000e+05
2.000000e+05
2.000000e+05
2.000000e+05
2.000000e+05
2.000000e+05
2.000000e+05
2.000000e+05
2.000000e+05
2.000000e+05
2.000000e+05
2.000000e+05
2.000000e+05
2.000000e+05
2.000000e+05
2.000000e+05
2.000000e+05
2.000000e+05
2.000000e+05
2.000000e+05
2.000000e+05
2.000000e+05
2.000000e+05
2.000000e+05
2.000000e+05
2.000000e+05
2.000000e+05
2.000000e+05
2.000000e+05
2.000000e+05
2.000000e+05
2.000000e+05
2.000000e+05
2.000000e+05
2.000000e+05
2.000000e+05
2.000000e+05
2.000000e+05
2.000000e+05
2.000000e+05
2.000000e+05
2.000000e+05
2.000000e+05
2.000000e+05
2.000000e+05
2.000000e+05
2.000000e+05
2.000000e+05
2.000000e+05
2.000000e+05
2.000000e+05
2.000000e+05
2.000000e+05
2.000000e+05
2.000000e+05
2.000000e+05
2.000000e+05
2.000000e+05
2.000000e+05
2.000000e+05
2.000000e+05
2.000000e+05
2.000000e+05
2.000000e+05
2.000000e+05
2.000000e+05
2.000000e+05
2.000000e+05
2.000000e+05
2.000000e+05
2.000000e+05
2.000000e+05
2.000000e+05
2.000000e+05
2.000000e+05
2.000000e+05
2.000000e+05
2.000000e+05
2.000000e+05
2.000000e+05
2.000000e+05
2.000000e+05
2.000000e+05
2.000000e+05
2.000000e+05
2.000000e+05
2.000000e+05
2.000000e+05
2.000000e+05
2.000000e+05
2.000000e+05
2.000000e+05
2.000000e+05
2.000000e+05
2.000000e+05
2.000000e+05
2.000000e+05
2.000000e+05
2.000000e+05
2.000000e+05
2.000000e+05
2.000000e+05
2.000000e+05
2.000000e+05
2.000000e+05
2.000000e+05
2.000000e+05
2.000000e+05
2.000000e+05
2.000000e+05
2.000000e+05
2.000000e+05
2.000000e+05
2.000000e+05
2.000000e+05
2.000000e+05
2.000000e+05
2.000000e+05
2.000000e+05
2.000000e+05
2.000000e+05
2.000000e+05
2.000000e+05
2.000000e+05
2.000000e+05
2.000000e+05
2.000000e+05
2.000000e+05
2.000000e+05
2.000000e+05
2.000000e+05
2.000000e+05
2.000000e+05
2.000000e+05
2.000000e+05
2.000000e+05
2.000000e+05
2.000000e+05
2.000000e+05
2.000000e+05
2.000000e+05
2.000000e+05
2.000000e+05
2.000000e+05
2.000000e+05
2.000000e+05
2.000000e+05
2.000000e+05
2.000000e+05
2.000000e+05
2.000000e+05
2.000000e+05
2.000000e+05
2.000000e+05
2.000000e+05
2.000000e+05
2.000000e+05
2.000000e+05
2.000000e+05
2.000000e+05
2.000000e+05
2.000000e+05
2.000000e+05
2.000000e+05
2.000000e+05
2.000000e+05
2.000000e+05
2.000000e+05
2.000000e+05
2.000000e+05
2.000000e+05
2.000000e+05
2.000000e+05
2.000000e+05
2.000000e+05
2.000000e+05
2.000000e+05
2.000000e+05
2.000000e+05
2.000000e+05
2.000000e+05
2.000000e+05
2.000000e+05
2.000000e+05
2.000000e+05
2.000000e+05
2.000000e+05
2.000000e+05
2.000000e+05
2.000000e+05
2.000000e+05
2.000000e+05
2.000000e+05
2.000000e+05
2.000000e+05
2.000000e+05
2.000000e+05
2.000000e+05
2.000000e+05
2.000000e+05
2.000000e+05
2.000000e+05
2.000000e+05
2.000000e+05
2.000000e+05
2.000000e+05
2.000000e+05
2.000000e+05
2.000000e+05
2.000000e+05
2.000000e+05
2.000000e+05
2.000000e+05
2.000000e+05
2.000000e+05
2.000000e+05
2.000000e+05
2.000000e+05
2.000000e+05
2.000000e+05
2.000000e+05
2.000000e+05
2.000000e+05
2.000000e+05
2.000000e+05
2.000000e+05
2.000000e+05
0.0
0.0
0.0
0.0
0.0
0.0
0.0
0.0
0.0
0.0
0.0
0.0
0.0
0.0
0.0
0.0
0.0
0.0
0.0
0.0
SCALARS Residual_Pressure double 1
LOOKUP_TABLE default
0.000000e+00
0.000000e+00
0.000000e+00
0.000000e+00
0.000000e+00
0.000000e+00
0.000000e+00
0.000000e+00
0.000000e+00
1.000000e-05
0.000000e+00
0.000000e+00
0.000000e+00
0.000000e+00
0.000000e+00
0.000000e+00
0.000000e+00
0.000000e+00
0.000000e+00
0.000000e+00
0.000000e+00
0.000000e+00
0.000000e+00
0.000000e+00
0.000000e+00
0.000000e+00
0.000000e+00
0.000000e+00
0.000000e+00
0.000000e+00
0.000000e+00
0.000000e+00
0.000000e+00
0.000000e+00
0.000000e+00
0.000000e+00
0.000000e+00
0.000000e+00
0.000000e+00
0.000000e+00
0.000000e+00
0.000000e+00
0.000000e+00
0.000000e+00
0.000000e+00
0.000000e+00
0.000000e+00
0.000000e+00
0.000000e+00
0.000000e+00
0.000000e+00
0.000000e+00
0.000000e+00
0.000000e+00
0.000000e+00
0.000000e+00
0.000000e+00
0.000000e+00
0.000000e+00
0.000000e+00
0.000000e+00
0.000000e+00
0.000000e+00
0.000000e+00
0.000000e+00
0.000000e+00
0.000000e+00
1.000000e-05
0.000000e+00
0.000000e+00
0.000000e+00
0.000000e+00
0.000000e+00
0.000000e+00
0.000000e+00
0.000000e+00
0.000000e+00
0.000000e+00
0.000000e+00
0.000000e+00
0.000000e+00
0.000000e+00
0.000000e+00
0.000000e+00
0.000000e+00
0.000000e+00
1.000000e-05
0.000000e+00
0.000000e+00
1.000000e-05
0.000000e+00
0.000000e+00
0.000000e+00
0.000000e+00
0.000000e+00
0.000000e+00
0.000000e+00
0.000000e+00
0.000000e+00
0.000000e+00
1.000000e-05
0.000000e+00
0.000000e+00
0.000000e+00
0.000000e+00
0.000000e+00
0.000000e+00
0.000000e+00
0.000000e+00
0.000000e+00
0.000000e+00
0.000000e+00
0.000000e+00
0.000000e+00
0.000000e+00
0.000000e+00
0.000000e+00
0.000000e+00
0.000000e+00
0.000000e+00
0.000000e+00
0.000000e+00
0.000000e+00
0.000000e+00
1.000000e-05
0.000000e+00
0.000000e+00
1.000000e-05
0.000000e+00
0.000000e+00
1.000000e-05
0.000000e+00
0.000000e+00
0.000000e+00
0.000000e+00
0.000000e+00
0.000000e+00
0.000000e+00
0.000000e+00
0.000000e+00
0.000000e+00
0.000000e+00
0.000000e+00
0.000000e+00
0.000000e+00
0.000000e+00
1.000000e-05
0.000000e+00
0.000000e+00
0.000000e+00
0.000000e+00
0.000000e+00
0.000000e+00
0.000000e+00
0.000000e+00
0.000000e+00
0.000000e+00
0.000000e+00
0.000000e+00
0.000000e+00
0.000000e+00
0.000000e+00
0.000000e+00
1.000000e-05
0.000000e+00
0.000000e+00
0.000000e+00
0.000000e+00
0.000000e+00
0.000000e+00
0.000000e+00
1.000000e-05
1.000000e-05
0.000000e+00
0.000000e+00
0.000000e+00
0.000000e+00
0.000000e+00
0.000000e+00
0.000000e+00
0.000000e+00
0.000000e+00
0.000000e+00
0.000000e+00
0.000000e+00
0.000000e+00
0.000000e+00
1.000000e-05
0.000000e+00
0.000000e+00
0.000000e+00
1.000000e-05
0.000000e+00
1.000000e-05
1.000000e-05
0.000000e+00
0.000000e+00
0.000000e+00
0.000000e+00
0.000000e+00
0.000000e+00
0.000000e+00
0.000000e+00
0.000000e+00
0.000000e+00
1.000000e-05
1.000000e-05
0.000000e+00
0.000000e+00
0.000000e+00
0.000000e+00
0.000000e+00
0.000000e+00
0.000000e+00
0.000000e+00
0.000000e+00
0.000000e+00
1.000000e-05
0.000000e+00
0.000000e+00
0.000000e+00
0.000000e+00
0.000000e+00
0.000000e+00
0.000000e+00
0.000000e+00
0.000000e+00
1.000000e-05
0.000000e+00
0.000000e+00
0.000000e+00
0.000000e+00
0.000000e+00
0.000000e+00
0.000000e+00
0.000000e+00
0.000000e+00
0.000000e+00
0.000000e+00
0.000000e+00
0.000000e+00
0.000000e+00
0.000000e+00
0.000000e+00
0.0
0.0
0.0
0.0
0.0
0.0
0.0
0.0
0.0
0.0
0.0
0.0
0.0
0.0
0.0
0.0
0.0
0.0
0.0
0.0
