Variables = x, y, T
Zone  n=44  e=66  f=fepoint  et=triangle
0  0  411.575
1  0  373.15
1  1  411.575
0  1  450
0.2  0  373.15
0.4  0  373.15
0.6  0  373.15
0.8  0  373.15
1  0.2  373.15
1  0.4  373.15
1  0.6  373.15
1  0.8  373.15
0.8  1  450
0.6  1  450
0.4  1  450
0.2  1  450
0  0.8  450
0  0.6  450
0  0.4  450
0  0.2  450
0.163707  0.488665  425.467
0.83535  0.4903  379.619
0.493918  0.132376  378.853
0.498598  0.836326  426.434
0.301827  0.833309  433.839
0.399853  0.675163  413.562
0.599554  0.677303  403.105
0.497542  0.492301  394.95
0.830577  0.300184  375.711
0.8147  0.689149  391.543
0.169382  0.300114  419.114
0.188871  0.684646  430.559
0.315436  0.183385  391.147
0.694476  0.840999  419.817
0.683022  0.17525  376.398
0.322209  0.387279  402.699
0.668523  0.385325  381.777
0.476883  0.317411  386.035
0.14641  0.85359  442.579
0.85359  0.85359  408.819
0.14641  0.14641  408.58
0.85359  0.14641  373.988
0.311809  0.543188  410.988
0.689697  0.541798  388.053
35 37 38
23 35 38
26 25 32
36 33 38
27 30 34
31 33 36
35 29 37
26 32 43
30 27 44
10 11 22
14 15 24
18 19 21
24 26 27
6 7 23
27 26 28
11 12 30
15 16 25
19 20 31
10 22 29
24 25 26
22 11 30
9 10 29
24 15 25
21 19 31
33 23 38
17 18 32
13 14 34
5 6 33
7 8 35
24 27 34
18 21 32
14 24 34
6 23 33
23 7 35
21 31 36
29 22 37
4 17 39
3 13 40
1 5 41
20 1 41
16 4 39
12 3 40
2 9 42
8 2 42
37 28 38
22 30 44
28 26 43
27 28 44
32 21 43
36 28 43
28 37 44
35 8 42
13 34 40
17 32 39
5 33 41
30 12 40
25 16 39
31 20 41
9 29 42
29 35 42
34 30 40
32 25 39
33 31 41
28 36 38
21 36 43
37 22 44
